   * xtb version 6.7.1 (edcfbbe) compiled by 'conda@c0858423619e' on 2025-09-04

   ID    Z sym.   atoms
    1    6 C      1-16
    2    1 H      17-35

          program call               : /home/paufv/miniforge3/envs/htvs/bin/xtb gfn_opt.xyz --opt normal --parallel 4 --chrg 0 --uhf 0 --gfn2 --input xtb.inp
          :  Hamiltonian                  GFN2-xTB          :
 * total energy  :   -43.8653701 Eh     change       -0.1106777E-08 Eh
 * total energy  :   -43.8732577 Eh     change       -0.7887611E-02 Eh
 * total energy  :   -43.8754269 Eh     change       -0.2169122E-02 Eh
 * total energy  :   -43.8758026 Eh     change       -0.3756915E-03 Eh
 * total energy  :   -43.8759758 Eh     change       -0.1732901E-03 Eh
 * total energy  :   -43.8760698 Eh     change       -0.9396952E-04 Eh
 * total energy  :   -43.8761630 Eh     change       -0.9318978E-04 Eh
 * total energy  :   -43.8762432 Eh     change       -0.8021464E-04 Eh
 * total energy  :   -43.8762855 Eh     change       -0.4224669E-04 Eh
 * total energy  :   -43.8763129 Eh     change       -0.2742251E-04 Eh
 * total energy  :   -43.8763767 Eh     change       -0.2084296E-04 Eh
 * total energy  :   -43.8763970 Eh     change       -0.2027022E-04 Eh
 * total energy  :   -43.8764272 Eh     change       -0.3024851E-04 Eh
 * total energy  :   -43.8764717 Eh     change       -0.4446057E-04 Eh
 * total energy  :   -43.8764936 Eh     change       -0.2192823E-04 Eh
 * total energy  :   -43.8764906 Eh     change        0.3037413E-05 Eh
 * total energy  :   -43.8765110 Eh     change       -0.2041078E-04 Eh
 * total energy  :   -43.8765168 Eh     change       -0.5805563E-05 Eh
 * total energy  :   -43.8765192 Eh     change       -0.2430028E-05 Eh
   *** GEOMETRY OPTIMIZATION CONVERGED AFTER 23 ITERATIONS ***

 final structure:
================
35
 xtb: 6.7.1 (edcfbbe)
C           -2.42998920558020        1.75515233205111        1.08779035298121
C           -2.46488521136380        0.23336079051496        1.04187275526551
C           -2.06111352775002       -0.39579338489419       -0.33441835140164
C           -2.75941692138376       -1.71460288305674       -0.42507066819243
C           -2.11530322288169       -2.88846131857625       -0.22465281166519
C           -0.72097322189007       -2.92452735983794       -0.06032741154096
C            0.01936760115571       -1.75335755795815       -0.24930349766782
C           -0.57557862832813       -0.54418090738159       -0.46336038837386
C            0.23941199154655        0.64307874279267       -0.91432196957488
C            0.38935470296860        0.56972366885885       -2.44014092889507
C            1.55343418686332        0.70789600277545       -0.16784036552604
C            2.79156462060369        0.55399103701583       -0.77601603000288
C            3.95859630283220        0.61748051445465       -0.03169818478047
C            3.90886954012057        0.83436810660179        1.33278447033447
C            2.67909989309628        0.98500371039306        1.95213666239586
C            1.51716342430007        0.92087043860154        1.20779665510984
H           -3.02982040621783        2.17753237149376        0.28327634470636
H           -1.41773134224413        2.14207000135232        1.00449208052319
H           -2.84100631279812        2.10160908864631        2.03466738003744
H           -1.81396988175443       -0.18464149220090        1.81179818425382
H           -3.48421116224482       -0.09233324305981        1.26356902411621
H           -2.44145279345451        0.28200877689122       -1.11132481690486
H           -3.82861897357151       -1.68575419417317       -0.57657013158517
H           -2.66894880407947       -3.81704816889613       -0.22267926560036
H           -0.21834647760747       -3.86034715850577        0.12403470698886
H            1.09905208396375       -1.81964463485513       -0.27243411686112
H           -0.31300395868848        1.56180219387476       -0.69074167500196
H            0.88055974515291       -0.35455151943455       -2.73461429734127
H            0.95995599149733        1.41796798596732       -2.81226197721590
H           -0.59502267168351        0.58774238670545       -2.90353323510157
H            2.86216354178878        0.38027584306039       -1.83825223556142
H            4.91237107446947        0.49498967934170       -0.52493060536604
H            4.82002449641946        0.88423871602212        1.91081639371190
H            2.62658457657880        1.15280182365879        3.01832205857536
H            0.56201895016430        1.03127961175653        1.70083589516211

          :  Hamiltonian                  GFN2-xTB          :
         :: total energy             -43.876519236993 Eh    ::
         :: gradient norm              0.000404458982 Eh/a0 ::
         :: HOMO-LUMO gap              2.266591401120 eV    ::
         :: SCC energy               -44.660256880397 Eh    ::
         :: -> dispersion             -0.035950001342 Eh    ::
         :: repulsion energy           0.783737643404 Eh    ::

    * Orbital Energies and Occupations

         #    Occupation            Energy/Eh            Energy/eV
      -------------------------------------------------------------
         1        2.0000           -0.6411094             -17.4455
       ...           ...                  ...                  ...
        30        2.0000           -0.4510918             -12.2748
        31        2.0000           -0.4496685             -12.2361
        32        2.0000           -0.4431439             -12.0586
        33        2.0000           -0.4366658             -11.8823
        34        2.0000           -0.4300879             -11.7033
        35        2.0000           -0.4208471             -11.4518
        36        2.0000           -0.4161680             -11.3245
        37        2.0000           -0.4148301             -11.2881
        38        2.0000           -0.4030702             -10.9681
        39        2.0000           -0.3983601             -10.8399
        40        2.0000           -0.3939991             -10.7213
        41        2.0000           -0.3837894             -10.4434
        42        1.0000           -0.3006574              -8.1813 (HOMO)
        43                         -0.2173617              -5.9147 (LUMO)
        44                         -0.2157824              -5.8717
        45                         -0.2040528              -5.5526
        46                         -0.1237569              -3.3676
        47                         -0.0880013              -2.3946
        48                          0.0639241               1.7395
        49                          0.0829654               2.2576
        50                          0.0970677               2.6413
        51                          0.1055819               2.8730
        52                          0.1098698               2.9897
        53                          0.1205678               3.2808
       ...                                ...                  ...
        83                          0.6715640              18.2742
      -------------------------------------------------------------
                  HL-Gap            0.0832957 Eh            2.2666 eV

     #   Z          covCN         q      C6AA      α(0)
     1   6 C        3.750    -0.099    22.452     6.758
     2   6 C        3.804    -0.048    21.431     6.591
     3   6 C        3.859    -0.016    20.822     6.490
     4   6 C        2.914    -0.046    29.141     8.852
     5   6 C        2.903    -0.034    28.844     8.806
     6   6 C        2.916    -0.044    29.094     8.845
     7   6 C        2.908    -0.038    28.949     8.822
     8   6 C        2.966     0.000    28.016     8.682
     9   6 C        3.861    -0.023    20.941     6.508
    10   6 C        3.757    -0.098    22.429     6.752
    11   6 C        2.971     0.012    27.734     8.638
    12   6 C        2.924    -0.039    28.973     8.827
    13   6 C        2.920    -0.032    28.788     8.799
    14   6 C        2.920    -0.034    28.843     8.807
    15   6 C        2.919    -0.031    28.772     8.796
    16   6 C        2.928    -0.038    28.942     8.823
    17   1 H        0.925     0.034     2.530     2.487
    18   1 H        0.925     0.037     2.495     2.470
    19   1 H        0.925     0.035     2.517     2.481
    20   1 H        0.924     0.034     2.529     2.487
    21   1 H        0.924     0.035     2.510     2.478
    22   1 H        0.923     0.041     2.429     2.438
    23   1 H        0.926     0.022     2.703     2.571
    24   1 H        0.926     0.024     2.666     2.553
    25   1 H        0.926     0.023     2.694     2.567
    26   1 H        0.925     0.025     2.654     2.547
    27   1 H        0.924     0.044     2.395     2.420
    28   1 H        0.925     0.039     2.463     2.454
    29   1 H        0.925     0.038     2.471     2.458
    30   1 H        0.925     0.034     2.534     2.489
    31   1 H        0.926     0.034     2.534     2.489
    32   1 H        0.926     0.026     2.638     2.540
    33   1 H        0.926     0.026     2.639     2.540
    34   1 H        0.926     0.027     2.633     2.538
    35   1 H        0.926     0.027     2.625     2.533

Wiberg/Mayer (AO) data.
largest (>0.10) Wiberg bond orders for each atom

     #   Z sym  total        # sym  WBO       # sym  WBO       # sym  WBO
 ---------------------------------------------------------------------------
     1   6 C    3.996 --     2 C    1.021    17 H    0.987    19 H    0.983
                            18 H    0.980
     2   6 C    3.989 --     1 C    1.021    20 H    0.979    21 H    0.975
                             3 C    0.921
     3   6 C    3.995 --     4 C    1.031     8 C    1.026    22 H    0.942
                             2 C    0.921
     4   6 C    3.921 --     5 C    1.637     3 C    1.031    23 H    0.971
     5   6 C    3.992 --     4 C    1.637     6 C    1.302    24 H    0.968
     6   6 C    3.877 --     7 C    1.339     5 C    1.302    25 H    0.974
     7   6 C    3.992 --     8 C    1.568     6 C    1.339    26 H    0.964
     8   6 C    3.911 --     7 C    1.568     3 C    1.026     9 C    0.995
     9   6 C    3.995 --     8 C    0.995    11 C    0.992    10 C    0.983
                            27 H    0.947
    10   6 C    3.996 --    30 H    0.986    28 H    0.986     9 C    0.983
                            29 H    0.983
    11   6 C    3.987 --    12 C    1.420    16 C    1.401     9 C    0.992
                            14 C    0.110
    12   6 C    3.991 --    13 C    1.436    11 C    1.420    31 H    0.967
                            15 C    0.109
    13   6 C    3.992 --    14 C    1.447    12 C    1.436    32 H    0.971
                            16 C    0.112
    14   6 C    3.992 --    13 C    1.447    15 C    1.429    33 H    0.972
                            11 C    0.110
    15   6 C    3.992 --    16 C    1.456    14 C    1.429    34 H    0.971
                            12 C    0.109
    16   6 C    3.992 --    15 C    1.456    11 C    1.401    35 H    0.967
                            13 C    0.112
    17   1 H    0.999 --     1 C    0.987
    18   1 H    0.999 --     1 C    0.980
    19   1 H    0.997 --     1 C    0.983
    20   1 H    0.999 --     2 C    0.979
    21   1 H    0.999 --     2 C    0.975
    22   1 H    0.998 --     3 C    0.942
    23   1 H    0.999 --     4 C    0.971
    24   1 H    0.999 --     5 C    0.968
    25   1 H    0.999 --     6 C    0.974
    26   1 H    0.999 --     7 C    0.964
    27   1 H    0.998 --     9 C    0.947
    28   1 H    0.998 --    10 C    0.986
    29   1 H    0.997 --    10 C    0.983
    30   1 H    0.998 --    10 C    0.986
    31   1 H    0.999 --    12 C    0.967
    32   1 H    0.999 --    13 C    0.971
    33   1 H    0.999 --    14 C    0.972
    34   1 H    0.999 --    15 C    0.971
    35   1 H    0.999 --    16 C    0.967
 ---------------------------------------------------------------------------

molecular dipole:
                 x           y           z       tot (Debye)
 q only:       -0.192       0.376      -0.113
   full:       -0.215       0.379      -0.099       1.136

           -------------------------------------------------
          | TOTAL ENERGY              -43.876519236993 Eh   |
          | GRADIENT NORM               0.000404458982 Eh/α |
          | HOMO-LUMO GAP               2.266591401120 eV   |
           -------------------------------------------------

 * finished run on 2025/09/15 at 14:21:08.696
