   * xtb version 6.7.1 (edcfbbe) compiled by 'conda@c0858423619e' on 2025-09-04

   ID    Z sym.   atoms
    1    6 C      1-16
    2    1 H      17-35

          program call               : /home/paufv/miniforge3/envs/htvs/bin/xtb gfn_opt.xyz --opt normal --parallel 4 --chrg 0 --uhf 0 --gfn2 --input xtb.inp
          :  Hamiltonian                  GFN2-xTB          :
 * total energy  :   -43.8662893 Eh     change       -0.3467235E-09 Eh
 * total energy  :   -43.8744821 Eh     change       -0.8192812E-02 Eh
 * total energy  :   -43.8767066 Eh     change       -0.2224510E-02 Eh
 * total energy  :   -43.8770382 Eh     change       -0.3316090E-03 Eh
 * total energy  :   -43.8771747 Eh     change       -0.1364610E-03 Eh
 * total energy  :   -43.8772443 Eh     change       -0.6966888E-04 Eh
 * total energy  :   -43.8773248 Eh     change       -0.8050714E-04 Eh
 * total energy  :   -43.8774045 Eh     change       -0.7967178E-04 Eh
 * total energy  :   -43.8774602 Eh     change       -0.5571936E-04 Eh
 * total energy  :   -43.8775034 Eh     change       -0.4320015E-04 Eh
 * total energy  :   -43.8775560 Eh     change       -0.6399039E-05 Eh
 * total energy  :   -43.8775658 Eh     change       -0.9800840E-05 Eh
 * total energy  :   -43.8775782 Eh     change       -0.1240027E-04 Eh
 * total energy  :   -43.8775905 Eh     change       -0.1225317E-04 Eh
 * total energy  :   -43.8776040 Eh     change       -0.1350984E-04 Eh
 * total energy  :   -43.8776203 Eh     change       -0.1632109E-04 Eh
 * total energy  :   -43.8776348 Eh     change       -0.1453910E-04 Eh
 * total energy  :   -43.8776435 Eh     change       -0.8678032E-05 Eh
 * total energy  :   -43.8776465 Eh     change       -0.2986745E-05 Eh
   *** GEOMETRY OPTIMIZATION CONVERGED AFTER 22 ITERATIONS ***

 final structure:
================
35
 xtb: 6.7.1 (edcfbbe)
C           -2.86428165770765        0.40763021255262       -1.42336575443207
C           -2.64463264543328       -0.71551440254282       -0.41990829018368
C           -1.15294104753968       -0.98372170573708       -0.03659878344312
C           -1.15994986635894       -2.26598938253103        0.73187805889926
C           -1.14514143833342       -2.27810247679956        2.08567757244905
C           -0.95248260027164       -1.08896290257840        2.80824840223631
C           -0.58355765084108        0.07734431404965        2.12650616220647
C           -0.56485801539174        0.14220188345617        0.76386320248302
C            0.09536886946459        1.24788792448500       -0.01401854541264
C            0.55407841770294        2.43965374763441        0.83033673028216
C            1.29084722310578        0.67839520275346       -0.75338656162560
C            1.49964439148679        0.97035375062756       -2.09418022227284
C            2.60197837358011        0.46691867007730       -2.76286298177110
C            3.50891608446670       -0.33817778860804       -2.09645473795597
C            3.30795481751462       -0.63526008539974       -0.75877551152268
C            2.20700780745776       -0.12988004502313       -0.09196340544421
H           -2.70257169116857        1.38177646398945       -0.96959622371870
H           -3.89027213063156        0.37759781649978       -1.78621281206330
H           -2.19941189614797        0.29793218044540       -2.27809851399371
H           -3.03663258589236       -1.64428376776517       -0.84126681738163
H           -3.19729225430019       -0.50694945570248        0.49783525927999
H           -0.59953451511346       -1.10408514800421       -0.97683291869171
H           -1.27869256598840       -3.17691271428518        0.16467568120957
H           -1.24216585349966       -3.21034295977184        2.62436100123677
H           -0.97891466601137       -1.09811940052763        3.88637515156172
H           -0.25252139931253        0.91972859142625        2.71562208465526
H           -0.60406185157669        1.62390421806095       -0.76755764683067
H           -0.28488741053590        2.87682580796739        1.36719734300529
H            1.31731144365629        2.13919045770408        1.54381178749257
H            0.98158797539345        3.20040151022814        0.17988528513004
H            0.79345402939994        1.59740320030404       -2.62154294347413
H            2.75057187094986        0.70184863651965       -3.80703688031457
H            4.36786039412275       -0.73446385699612       -2.61785281746788
H            4.01147340889754       -1.26498928559566       -0.23369496007883
H            2.04684863485734       -0.37113921091436        0.94903360595595

          :  Hamiltonian                  GFN2-xTB          :
         :: total energy             -43.877646507765 Eh    ::
         :: gradient norm              0.000282514854 Eh/a0 ::
         :: HOMO-LUMO gap              2.183817133734 eV    ::
         :: SCC energy               -44.662116812115 Eh    ::
         :: -> dispersion             -0.036119729910 Eh    ::
         :: repulsion energy           0.784470304350 Eh    ::

    * Orbital Energies and Occupations

         #    Occupation            Energy/Eh            Energy/eV
      -------------------------------------------------------------
         1        2.0000           -0.6429201             -17.4947
       ...           ...                  ...                  ...
        30        2.0000           -0.4528039             -12.3214
        31        2.0000           -0.4473503             -12.1730
        32        2.0000           -0.4400611             -11.9747
        33        2.0000           -0.4352759             -11.8445
        34        2.0000           -0.4287758             -11.6676
        35        2.0000           -0.4222902             -11.4911
        36        2.0000           -0.4187983             -11.3961
        37        2.0000           -0.4091007             -11.1322
        38        2.0000           -0.4074455             -11.0872
        39        2.0000           -0.4003855             -10.8950
        40        2.0000           -0.3918130             -10.6618
        41        2.0000           -0.3853218             -10.4851
        42        1.0000           -0.2998100              -8.1582 (HOMO)
        43                         -0.2195562              -5.9744 (LUMO)
        44                         -0.2188402              -5.9549
        45                         -0.2010607              -5.4711
        46                         -0.1238693              -3.3707
        47                         -0.0896127              -2.4385
        48                          0.0644710               1.7543
        49                          0.0905333               2.4635
        50                          0.0989539               2.6927
        51                          0.1064996               2.8980
        52                          0.1173522               3.1933
        53                          0.1269368               3.4541
       ...                                ...                  ...
        83                          0.6674705              18.1628
      -------------------------------------------------------------
                  HL-Gap            0.0802538 Eh            2.1838 eV

     #   Z          covCN         q      C6AA      α(0)
     1   6 C        3.750    -0.099    22.460     6.759
     2   6 C        3.807    -0.048    21.435     6.591
     3   6 C        3.861    -0.016    20.827     6.490
     4   6 C        2.916    -0.045    29.107     8.847
     5   6 C        2.903    -0.035    28.869     8.810
     6   6 C        2.917    -0.045    29.120     8.849
     7   6 C        2.907    -0.042    29.050     8.838
     8   6 C        2.964     0.000    28.024     8.683
     9   6 C        3.860    -0.024    20.967     6.512
    10   6 C        3.756    -0.099    22.451     6.756
    11   6 C        2.979     0.014    27.699     8.633
    12   6 C        2.924    -0.039    28.963     8.826
    13   6 C        2.919    -0.031    28.782     8.798
    14   6 C        2.920    -0.033    28.827     8.805
    15   6 C        2.919    -0.030    28.757     8.794
    16   6 C        2.924    -0.034    28.851     8.809
    17   1 H        0.925     0.036     2.503     2.474
    18   1 H        0.925     0.036     2.503     2.474
    19   1 H        0.925     0.036     2.505     2.475
    20   1 H        0.924     0.034     2.527     2.486
    21   1 H        0.924     0.036     2.509     2.477
    22   1 H        0.924     0.037     2.485     2.465
    23   1 H        0.926     0.021     2.715     2.576
    24   1 H        0.926     0.023     2.682     2.561
    25   1 H        0.926     0.021     2.719     2.579
    26   1 H        0.926     0.029     2.596     2.520
    27   1 H        0.924     0.047     2.358     2.402
    28   1 H        0.925     0.038     2.479     2.462
    29   1 H        0.925     0.039     2.462     2.454
    30   1 H        0.925     0.034     2.529     2.487
    31   1 H        0.925     0.025     2.653     2.547
    32   1 H        0.926     0.028     2.621     2.532
    33   1 H        0.926     0.028     2.620     2.531
    34   1 H        0.926     0.028     2.610     2.526
    35   1 H        0.926     0.032     2.559     2.502

Wiberg/Mayer (AO) data.
largest (>0.10) Wiberg bond orders for each atom

     #   Z sym  total        # sym  WBO       # sym  WBO       # sym  WBO
 ---------------------------------------------------------------------------
     1   6 C    3.997 --     2 C    1.019    19 H    0.986    17 H    0.984
                            18 H    0.983
     2   6 C    3.989 --     1 C    1.019    21 H    0.980    20 H    0.976
                             3 C    0.921
     3   6 C    3.995 --     4 C    1.028     8 C    1.022    22 H    0.948
                             2 C    0.921
     4   6 C    3.921 --     5 C    1.637     3 C    1.028    23 H    0.971
     5   6 C    3.992 --     4 C    1.637     6 C    1.301    24 H    0.967
     6   6 C    3.873 --     7 C    1.335     5 C    1.301    25 H    0.974
     7   6 C    3.991 --     8 C    1.569     6 C    1.335    26 H    0.962
     8   6 C    3.913 --     7 C    1.569     3 C    1.022     9 C    1.008
     9   6 C    3.994 --     8 C    1.008    10 C    0.993    11 C    0.973
                            27 H    0.944
    10   6 C    3.996 --     9 C    0.993    30 H    0.987    29 H    0.985
                            28 H    0.984
    11   6 C    3.987 --    12 C    1.416    16 C    1.409     9 C    0.973
                            14 C    0.110
    12   6 C    3.991 --    13 C    1.441    11 C    1.416    31 H    0.969
                            15 C    0.110
    13   6 C    3.991 --    14 C    1.441    12 C    1.441    32 H    0.971
                            16 C    0.112
    14   6 C    3.991 --    13 C    1.441    15 C    1.435    33 H    0.972
                            11 C    0.110
    15   6 C    3.992 --    16 C    1.449    14 C    1.435    34 H    0.971
                            12 C    0.110
    16   6 C    3.992 --    15 C    1.449    11 C    1.409    35 H    0.968
                            13 C    0.112
    17   1 H    0.999 --     1 C    0.984
    18   1 H    0.997 --     1 C    0.983
    19   1 H    0.999 --     1 C    0.986
    20   1 H    0.999 --     2 C    0.976
    21   1 H    0.999 --     2 C    0.980
    22   1 H    0.998 --     3 C    0.948
    23   1 H    0.999 --     4 C    0.971
    24   1 H    0.999 --     5 C    0.967
    25   1 H    0.999 --     6 C    0.974
    26   1 H    0.999 --     7 C    0.962
    27   1 H    0.997 --     9 C    0.944
    28   1 H    0.998 --    10 C    0.984
    29   1 H    0.998 --    10 C    0.985
    30   1 H    0.998 --    10 C    0.987
    31   1 H    0.999 --    12 C    0.969
    32   1 H    0.999 --    13 C    0.971
    33   1 H    0.999 --    14 C    0.972
    34   1 H    0.999 --    15 C    0.971
    35   1 H    0.999 --    16 C    0.968
 ---------------------------------------------------------------------------

molecular dipole:
                 x           y           z       tot (Debye)
 q only:       -0.151       0.274      -0.245
   full:       -0.131       0.240      -0.283       1.001

           -------------------------------------------------
          | TOTAL ENERGY              -43.877646507765 Eh   |
          | GRADIENT NORM               0.000282514854 Eh/α |
          | HOMO-LUMO GAP               2.183817133734 eV   |
           -------------------------------------------------

 * finished run on 2025/09/15 at 14:21:07.409
