   * xtb version 6.7.1 (edcfbbe) compiled by 'conda@c0858423619e' on 2025-09-04

   ID    Z sym.   atoms
    1    6 C      1-16
    2    1 H      17-35

          program call               : /home/paufv/miniforge3/envs/htvs/bin/xtb gfn_opt.xyz --opt normal --parallel 4 --chrg 0 --uhf 0 --gfn2 --input xtb.inp
          :  Hamiltonian                  GFN2-xTB          :
 * total energy  :   -43.8581346 Eh     change       -0.1626361E-09 Eh
 * total energy  :   -43.8673244 Eh     change       -0.9189818E-02 Eh
 * total energy  :   -43.8697555 Eh     change       -0.2431134E-02 Eh
 * total energy  :   -43.8701612 Eh     change       -0.4057085E-03 Eh
 * total energy  :   -43.8703595 Eh     change       -0.1983154E-03 Eh
 * total energy  :   -43.8704885 Eh     change       -0.1289370E-03 Eh
 * total energy  :   -43.8706577 Eh     change       -0.1692101E-03 Eh
 * total energy  :   -43.8707819 Eh     change       -0.1242039E-03 Eh
 * total energy  :   -43.8708331 Eh     change       -0.5123897E-04 Eh
 * total energy  :   -43.8708496 Eh     change       -0.1647679E-04 Eh
 * total energy  :   -43.8749829 Eh     change       -0.3572278E-04 Eh
 * total energy  :   -43.8750065 Eh     change       -0.2355228E-04 Eh
 * total energy  :   -43.8750239 Eh     change       -0.1745910E-04 Eh
 * total energy  :   -43.8750317 Eh     change       -0.7715348E-05 Eh
 * total energy  :   -43.8750543 Eh     change       -0.2259405E-04 Eh
 * total energy  :   -43.8750762 Eh     change       -0.2189953E-04 Eh
 * total energy  :   -43.8751057 Eh     change       -0.2955620E-04 Eh
 * total energy  :   -43.8751156 Eh     change       -0.9905012E-05 Eh
 * total energy  :   -43.8751195 Eh     change       -0.3895212E-05 Eh
   *** GEOMETRY OPTIMIZATION CONVERGED AFTER 69 ITERATIONS ***

 final structure:
================
35
 xtb: 6.7.1 (edcfbbe)
C            1.63529139816029        1.86036273229651        0.81151467455636
C            2.04826503654170        0.78744258498748       -0.18606952489569
C            1.28746544581296       -0.56810971697881        0.02346867366682
C            2.30462292289244       -1.66025853331497        0.08713606978302
C            2.46519010709938       -2.57692595673228       -0.89592565134475
C            1.59039322478563       -2.60945135260826       -1.99284841387678
C            0.48396307515522       -1.75525639639115       -2.00766686209293
C            0.26215388217162       -0.81454005794511       -1.04354654943958
C           -1.02783247509031       -0.02251547139322       -1.08138462660017
C           -0.88127798153203        1.23569095103352       -1.94829446789244
C           -1.57815056618263        0.23537898710929        0.30254598061855
C           -1.73601968950998       -0.85495776135307        1.15614735037716
C           -2.23600681282559       -0.69436400585281        2.43376561450719
C           -2.59731735889134        0.56523674870903        2.88384343737005
C           -2.46048948503931        1.65239198491280        2.04126045474152
C           -1.95608163742077        1.48973220710665        0.76056699754365
H            1.87588673302301        1.54766640565776        1.82579837585421
H            0.56650768908362        2.05206780480727        0.76509294845003
H            2.16498504924247        2.78936337570903        0.60720792249157
H            3.11918552671303        0.60125085035396       -0.07894186376780
H            1.88636432901635        1.13059582054451       -1.20795973117352
H            0.78800208133034       -0.48830042041769        0.99871010176167
H            2.96575639121916       -1.64374913125122        0.94133211029533
H            3.25763895244381       -3.30949949451153       -0.83203454913987
H            1.73055709431211       -3.32945403504146       -2.78318633189959
H           -0.24500685853898       -1.87574139022977       -2.79970603881286
H           -1.76512744272740       -0.66051512121544       -1.58997046896971
H           -0.22931979560359        1.96963160853000       -1.48468310635410
H           -0.45669569168348        0.96026341734114       -2.91155282224064
H           -1.85496680283509        1.68936944212382       -2.12257953596199
H           -1.45773253862008       -1.83947750427582        0.80535272016171
H           -2.34561706332455       -1.55318946862405        3.08021996823131
H           -2.98741937894046        0.69555909344874        3.88245505578862
H           -2.74753920923517        2.63790227966283        2.37935002620677
H           -1.86972815098595        2.35649952381048        0.12348206205873

          :  Hamiltonian                  GFN2-xTB          :
         :: total energy             -43.875119513307 Eh    ::
         :: gradient norm              0.000457808879 Eh/a0 ::
         :: HOMO-LUMO gap              2.194778758169 eV    ::
         :: SCC energy               -44.657817416250 Eh    ::
         :: -> dispersion             -0.036954679089 Eh    ::
         :: repulsion energy           0.782697902943 Eh    ::

    * Orbital Energies and Occupations

         #    Occupation            Energy/Eh            Energy/eV
      -------------------------------------------------------------
         1        2.0000           -0.6433072             -17.5053
       ...           ...                  ...                  ...
        30        2.0000           -0.4497872             -12.2393
        31        2.0000           -0.4463531             -12.1459
        32        2.0000           -0.4418427             -12.0232
        33        2.0000           -0.4363137             -11.8727
        34        2.0000           -0.4293623             -11.6835
        35        2.0000           -0.4219425             -11.4816
        36        2.0000           -0.4181633             -11.3788
        37        2.0000           -0.4098037             -11.1513
        38        2.0000           -0.4072613             -11.0821
        39        2.0000           -0.4001410             -10.8884
        40        2.0000           -0.3919770             -10.6662
        41        2.0000           -0.3867575             -10.5242
        42        1.0000           -0.3003856              -8.1739 (HOMO)
        43                         -0.2197290              -5.9791 (LUMO)
        44                         -0.2186265              -5.9491
        45                         -0.2039184              -5.5489
        46                         -0.1232303              -3.3533
        47                         -0.0904626              -2.4616
        48                          0.0669685               1.8223
        49                          0.0754465               2.0530
        50                          0.0930234               2.5313
        51                          0.1017962               2.7700
        52                          0.1192691               3.2455
        53                          0.1222084               3.3255
       ...                                ...                  ...
        83                          0.6686249              18.1942
      -------------------------------------------------------------
                  HL-Gap            0.0806566 Eh            2.1948 eV

     #   Z          covCN         q      C6AA      α(0)
     1   6 C        3.751    -0.101    22.495     6.764
     2   6 C        3.802    -0.049    21.455     6.595
     3   6 C        3.858    -0.018    20.863     6.496
     4   6 C        2.912    -0.044    29.083     8.843
     5   6 C        2.903    -0.035    28.860     8.809
     6   6 C        2.915    -0.045    29.112     8.848
     7   6 C        2.910    -0.041    29.016     8.833
     8   6 C        2.958    -0.002    28.084     8.692
     9   6 C        3.862    -0.022    20.922     6.505
    10   6 C        3.753    -0.099    22.456     6.757
    11   6 C        2.969     0.013    27.716     8.635
    12   6 C        2.927    -0.038    28.939     8.822
    13   6 C        2.919    -0.031    28.771     8.796
    14   6 C        2.920    -0.034    28.842     8.807
    15   6 C        2.920    -0.032    28.798     8.800
    16   6 C        2.923    -0.039    28.976     8.828
    17   1 H        0.925     0.032     2.556     2.500
    18   1 H        0.925     0.040     2.445     2.445
    19   1 H        0.925     0.032     2.556     2.500
    20   1 H        0.924     0.035     2.523     2.484
    21   1 H        0.925     0.038     2.478     2.462
    22   1 H        0.923     0.052     2.290     2.367
    23   1 H        0.926     0.023     2.687     2.563
    24   1 H        0.926     0.024     2.673     2.557
    25   1 H        0.926     0.023     2.695     2.567
    26   1 H        0.925     0.021     2.714     2.576
    27   1 H        0.923     0.043     2.404     2.425
    28   1 H        0.925     0.043     2.412     2.429
    29   1 H        0.925     0.035     2.517     2.481
    30   1 H        0.925     0.035     2.514     2.480
    31   1 H        0.925     0.027     2.622     2.532
    32   1 H        0.926     0.027     2.626     2.534
    33   1 H        0.926     0.027     2.634     2.538
    34   1 H        0.926     0.026     2.639     2.540
    35   1 H        0.926     0.032     2.553     2.499

Wiberg/Mayer (AO) data.
largest (>0.10) Wiberg bond orders for each atom

     #   Z sym  total        # sym  WBO       # sym  WBO       # sym  WBO
 ---------------------------------------------------------------------------
     1   6 C    3.996 --     2 C    1.022    17 H    0.987    19 H    0.984
                            18 H    0.980
     2   6 C    3.990 --     1 C    1.022    20 H    0.976    21 H    0.976
                             3 C    0.921
     3   6 C    3.995 --     4 C    1.036     8 C    1.028    22 H    0.930
                             2 C    0.921
     4   6 C    3.923 --     5 C    1.634     3 C    1.036    23 H    0.971
     5   6 C    3.992 --     4 C    1.634     6 C    1.303    24 H    0.968
     6   6 C    3.877 --     7 C    1.339     5 C    1.303    25 H    0.974
     7   6 C    3.991 --     8 C    1.570     6 C    1.339    26 H    0.965
     8   6 C    3.911 --     7 C    1.570     3 C    1.028     9 C    0.994
     9   6 C    3.994 --    11 C    0.995     8 C    0.994    10 C    0.987
                            27 H    0.945
    10   6 C    3.996 --     9 C    0.987    29 H    0.986    30 H    0.984
                            28 H    0.982
    11   6 C    3.988 --    16 C    1.421    12 C    1.397     9 C    0.995
                            14 C    0.110
    12   6 C    3.992 --    13 C    1.457    11 C    1.397    31 H    0.969
                            15 C    0.112
    13   6 C    3.992 --    12 C    1.457    14 C    1.428    32 H    0.971
                            16 C    0.108
    14   6 C    3.992 --    15 C    1.448    13 C    1.428    33 H    0.972
                            11 C    0.110
    15   6 C    3.992 --    14 C    1.448    16 C    1.432    34 H    0.971
                            12 C    0.112
    16   6 C    3.991 --    15 C    1.432    11 C    1.421    35 H    0.966
                            13 C    0.108
    17   1 H    0.999 --     1 C    0.987
    18   1 H    0.998 --     1 C    0.980
    19   1 H    0.998 --     1 C    0.984
    20   1 H    0.999 --     2 C    0.976
    21   1 H    0.999 --     2 C    0.976
    22   1 H    0.996 --     3 C    0.930
    23   1 H    0.999 --     4 C    0.971
    24   1 H    0.999 --     5 C    0.968
    25   1 H    0.999 --     6 C    0.974
    26   1 H    0.999 --     7 C    0.965
    27   1 H    0.998 --     9 C    0.945
    28   1 H    0.998 --    10 C    0.982
    29   1 H    0.998 --    10 C    0.986
    30   1 H    0.997 --    10 C    0.984
    31   1 H    0.999 --    12 C    0.969
    32   1 H    0.999 --    13 C    0.971
    33   1 H    0.999 --    14 C    0.972
    34   1 H    0.999 --    15 C    0.971
    35   1 H    0.999 --    16 C    0.966
 ---------------------------------------------------------------------------

molecular dipole:
                 x           y           z       tot (Debye)
 q only:       -0.058       0.354      -0.006
   full:       -0.070       0.344       0.010       0.893

           -------------------------------------------------
          | TOTAL ENERGY              -43.875119513307 Eh   |
          | GRADIENT NORM               0.000457808879 Eh/α |
          | HOMO-LUMO GAP               2.194778758169 eV   |
           -------------------------------------------------

 * finished run on 2025/09/15 at 14:21:08.397
