   * xtb version 6.7.1 (edcfbbe) compiled by 'conda@c0858423619e' on 2025-09-04

   ID    Z sym.   atoms
    1    6 C      1-16
    2    1 H      17-35

          program call               : /home/paufv/miniforge3/envs/htvs/bin/xtb gfn_opt.xyz --opt normal --parallel 4 --chrg 0 --uhf 0 --gfn2 --input xtb.inp
          :  Hamiltonian                  GFN2-xTB          :
 * total energy  :   -43.8648801 Eh     change       -0.1099444E-08 Eh
 * total energy  :   -43.8733156 Eh     change       -0.8435480E-02 Eh
 * total energy  :   -43.8757526 Eh     change       -0.2436956E-02 Eh
 * total energy  :   -43.8763362 Eh     change       -0.5836783E-03 Eh
 * total energy  :   -43.8766905 Eh     change       -0.3542834E-03 Eh
 * total energy  :   -43.8768740 Eh     change       -0.1834890E-03 Eh
 * total energy  :   -43.8770431 Eh     change       -0.1690522E-03 Eh
 * total energy  :   -43.8772061 Eh     change       -0.1630529E-03 Eh
 * total energy  :   -43.8773336 Eh     change       -0.1274357E-03 Eh
 * total energy  :   -43.8774267 Eh     change       -0.9315958E-04 Eh
 * total energy  :   -43.8780979 Eh     change       -0.5084693E-04 Eh
 * total energy  :   -43.8781131 Eh     change       -0.1518815E-04 Eh
 * total energy  :   -43.8781323 Eh     change       -0.1927204E-04 Eh
 * total energy  :   -43.8781518 Eh     change       -0.1948117E-04 Eh
 * total energy  :   -43.8781749 Eh     change       -0.2311082E-04 Eh
 * total energy  :   -43.8781838 Eh     change       -0.8924658E-05 Eh
 * total energy  :   -43.8781936 Eh     change       -0.9753583E-05 Eh
 * total energy  :   -43.8781990 Eh     change       -0.5395066E-05 Eh
 * total energy  :   -43.8782026 Eh     change       -0.3599599E-05 Eh
   *** GEOMETRY OPTIMIZATION CONVERGED AFTER 29 ITERATIONS ***

 final structure:
================
35
 xtb: 6.7.1 (edcfbbe)
C           -2.59358080876497        2.06824024036435       -0.65348379092389
C           -2.66756769535987        0.82454079996928        0.23256016162636
C           -1.61875119804442       -0.21848948604850       -0.03956648289401
C           -1.36635937168241       -0.67639215294993       -1.30093834161422
C           -0.58992932314889       -1.81491790748311       -1.53793333872683
C           -0.19977236946808       -2.61754721257542       -0.45433725079149
C           -0.42157367371341       -2.21145214356047        0.81830643831671
C           -0.90709934783551       -0.83421542411099        1.12210945177748
C            0.36944384556247       -0.01063714624670        1.58280288194363
C            0.02206173691764        1.36417830204214        2.14424715423629
C            1.37482596331299        0.04831281664393        0.46702744845112
C            1.24508421150061        0.92823595180476       -0.60012649232673
C            2.16420551014686        0.92971156742956       -1.63341702363901
C            3.23242713134987        0.05052402559752       -1.61948616632608
C            3.37597809889590       -0.82870771447040       -0.56052798118411
C            2.45415430723955       -0.82850696327152        0.46970550448260
H           -3.39033890393224        2.75994608729884       -0.38795456541142
H           -1.64364067827415        2.58293883344406       -0.52832485154831
H           -2.70403829173488        1.81087145792167       -1.70291444782514
H           -3.64958576467596        0.35961494703404        0.07882313245069
H           -2.62263960255325        1.12849014322478        1.27960509401989
H           -1.82723867635213       -0.18978716407210       -2.14914958081750
H           -0.38355273072014       -2.12887931344666       -2.54833182656808
H            0.24163992174518       -3.58484460786516       -0.64852374521293
H           -0.15843941643601       -2.83598796945141        1.65906773233839
H           -1.56822021100385       -0.84654155004240        1.99897602665227
H            0.80638999266451       -0.59880750930076        2.39849951809257
H            0.92918328669782        1.84210596865393        2.51098687345029
H           -0.67366630819591        1.27039393517422        2.97620152676728
H           -0.41894758566354        2.01074038520146        1.39391719399058
H            0.41591635349585        1.61626551690380       -0.63669541481626
H            2.04303909147956        1.61955631788695       -2.45639771792417
H            3.94882880364973        0.05087904232846       -2.42800266800946
H            4.20774217464467       -1.51810104606282       -0.53750215051801
H            2.57382152825770       -1.52193102796742        1.29057769847745

          :  Hamiltonian                  GFN2-xTB          :
         :: total energy             -43.878202595945 Eh    ::
         :: gradient norm              0.000307314107 Eh/a0 ::
         :: HOMO-LUMO gap              2.323856337327 eV    ::
         :: SCC energy               -44.663780467199 Eh    ::
         :: -> dispersion             -0.039379803249 Eh    ::
         :: repulsion energy           0.785577871254 Eh    ::

    * Orbital Energies and Occupations

         #    Occupation            Energy/Eh            Energy/eV
      -------------------------------------------------------------
         1        2.0000           -0.6392431             -17.3947
       ...           ...                  ...                  ...
        30        2.0000           -0.4515368             -12.2869
        31        2.0000           -0.4466375             -12.1536
        32        2.0000           -0.4416308             -12.0174
        33        2.0000           -0.4370421             -11.8925
        34        2.0000           -0.4314590             -11.7406
        35        2.0000           -0.4141101             -11.2685
        36        2.0000           -0.4136347             -11.2556
        37        2.0000           -0.4103500             -11.1662
        38        2.0000           -0.4049361             -11.0189
        39        2.0000           -0.3968690             -10.7994
        40        2.0000           -0.3888167             -10.5802
        41        2.0000           -0.3832186             -10.4279
        42        1.0000           -0.2989077              -8.1337 (HOMO)
        43                         -0.2135076              -5.8098 (LUMO)
        44                         -0.2128985              -5.7933
        45                         -0.2030754              -5.5260
        46                         -0.1237026              -3.3661
        47                         -0.0847144              -2.3052
        48                          0.0643169               1.7502
        49                          0.0751224               2.0442
        50                          0.0950570               2.5866
        51                          0.1057907               2.8787
        52                          0.1092001               2.9715
        53                          0.1217856               3.3140
       ...                                ...                  ...
        83                          0.6758638              18.3912
      -------------------------------------------------------------
                  HL-Gap            0.0854001 Eh            2.3239 eV

     #   Z          covCN         q      C6AA      α(0)
     1   6 C        3.751    -0.095    22.368     6.745
     2   6 C        3.804    -0.056    21.585     6.614
     3   6 C        2.955     0.001    28.008     8.680
     4   6 C        2.909    -0.038    28.948     8.822
     5   6 C        2.917    -0.043    29.061     8.840
     6   6 C        2.904    -0.033    28.816     8.802
     7   6 C        2.914    -0.045    29.113     8.848
     8   6 C        3.860    -0.016    20.820     6.489
     9   6 C        3.857    -0.014    20.791     6.485
    10   6 C        3.753    -0.100    22.470     6.760
    11   6 C        2.970     0.012    27.738     8.639
    12   6 C        2.925    -0.033    28.823     8.804
    13   6 C        2.920    -0.031    28.785     8.798
    14   6 C        2.920    -0.033    28.829     8.805
    15   6 C        2.919    -0.031    28.773     8.796
    16   6 C        2.927    -0.037    28.914     8.818
    17   1 H        0.925     0.032     2.552     2.498
    18   1 H        0.925     0.030     2.583     2.513
    19   1 H        0.925     0.036     2.497     2.471
    20   1 H        0.924     0.040     2.452     2.449
    21   1 H        0.924     0.038     2.480     2.463
    22   1 H        0.926     0.026     2.645     2.543
    23   1 H        0.926     0.022     2.707     2.573
    24   1 H        0.926     0.024     2.674     2.557
    25   1 H        0.926     0.021     2.718     2.578
    26   1 H        0.923     0.039     2.463     2.454
    27   1 H        0.924     0.034     2.528     2.486
    28   1 H        0.925     0.036     2.509     2.477
    29   1 H        0.925     0.033     2.548     2.496
    30   1 H        0.925     0.045     2.382     2.414
    31   1 H        0.926     0.032     2.555     2.499
    32   1 H        0.926     0.026     2.638     2.540
    33   1 H        0.926     0.027     2.636     2.539
    34   1 H        0.926     0.027     2.630     2.536
    35   1 H        0.926     0.024     2.669     2.555

Wiberg/Mayer (AO) data.
largest (>0.10) Wiberg bond orders for each atom

     #   Z sym  total        # sym  WBO       # sym  WBO       # sym  WBO
 ---------------------------------------------------------------------------
     1   6 C    3.997 --     2 C    1.008    17 H    0.987    19 H    0.985
                            18 H    0.982
     2   6 C    3.997 --     3 C    1.022     1 C    1.008    21 H    0.973
                            20 H    0.953
     3   6 C    3.916 --     4 C    1.563     8 C    1.034     2 C    1.022
     4   6 C    3.993 --     3 C    1.563     5 C    1.341    22 H    0.963
     5   6 C    3.882 --     4 C    1.341     6 C    1.303    23 H    0.974
     6   6 C    3.993 --     7 C    1.634     5 C    1.303    24 H    0.967
     7   6 C    3.925 --     6 C    1.634     8 C    1.037    25 H    0.971
     8   6 C    3.994 --     7 C    1.037     3 C    1.034    26 H    0.944
                             9 C    0.875
     9   6 C    3.986 --    11 C    1.010    10 C    1.005    27 H    0.965
                             8 C    0.875
    10   6 C    3.996 --     9 C    1.005    29 H    0.985    28 H    0.983
                            30 H    0.980
    11   6 C    3.988 --    12 C    1.408    16 C    1.406     9 C    1.010
                            14 C    0.109
    12   6 C    3.992 --    13 C    1.445    11 C    1.408    31 H    0.962
                            15 C    0.110
    13   6 C    3.993 --    12 C    1.445    14 C    1.438    32 H    0.971
                            16 C    0.110
    14   6 C    3.992 --    13 C    1.438    15 C    1.436    33 H    0.972
                            11 C    0.109
    15   6 C    3.992 --    16 C    1.448    14 C    1.436    34 H    0.971
                            12 C    0.110
    16   6 C    3.992 --    15 C    1.448    11 C    1.406    35 H    0.969
                            13 C    0.110
    17   1 H    0.998 --     1 C    0.987
    18   1 H    0.999 --     1 C    0.982
    19   1 H    0.999 --     1 C    0.985
    20   1 H    0.998 --     2 C    0.953
    21   1 H    0.998 --     2 C    0.973
    22   1 H    0.999 --     4 C    0.963
    23   1 H    0.999 --     5 C    0.974
    24   1 H    0.999 --     6 C    0.967
    25   1 H    0.999 --     7 C    0.971
    26   1 H    0.997 --     8 C    0.944
    27   1 H    0.999 --     9 C    0.965
    28   1 H    0.997 --    10 C    0.983
    29   1 H    0.998 --    10 C    0.985
    30   1 H    0.998 --    10 C    0.980
    31   1 H    0.999 --    12 C    0.962
    32   1 H    0.999 --    13 C    0.971
    33   1 H    0.999 --    14 C    0.972
    34   1 H    0.999 --    15 C    0.971
    35   1 H    0.999 --    16 C    0.969
 ---------------------------------------------------------------------------

molecular dipole:
                 x           y           z       tot (Debye)
 q only:       -0.264       0.330       0.309
   full:       -0.277       0.295       0.328       1.324

           -------------------------------------------------
          | TOTAL ENERGY              -43.878202595945 Eh   |
          | GRADIENT NORM               0.000307314107 Eh/α |
          | HOMO-LUMO GAP               2.323856337327 eV   |
           -------------------------------------------------

 * finished run on 2025/09/15 at 14:52:51.897
