                         Program Version 5.0.1 -  RELEASE  -
|  1> ! m062x def2-svp OptTS TightSCF TightOpt NumFreq CHELPG
|  2>
|  3>
|  4> %MaxCore 1900
|  5>
|  6> %pal
|  7>  nprocs 32
|  8> end
|  9>
| 10> %scf
| 11>  MaxIter 150
| 12> end
| 13>
| 14>
| 15> %geom
| 16>  MaxIter 150
| 17>  Calc_Hess true
| 18>  Recalc_Hess 5
| 19> end
| 20>
| 21> * xyz 1 1
| 22>   C   -2.68467562042402     -1.66592155034531     -0.81935726538946
| 23>   C   -1.53623637150601     -1.54673614364361      0.19642218446619
| 24>   C   -1.42680487843030     -0.15745796826618      0.74544505887772
| 25>   C   -2.02011212472960      0.17919941478270      1.95123530378129
| 26>   C   -1.96493461707970      1.48541509100843      2.46751758780434
| 27>   C   -1.32350156626656      2.50904384893877      1.78039228466899
| 28>   C   -0.69679570687987      2.21243560897930      0.57123949083718
| 29>   C   -0.75417629345702      0.88859583860777     -0.01568154635696
| 30>   C   0.14459965683447      0.52278436787128     -1.19681852229844
| 31>   C   0.57775883512703      1.72747242186941     -2.03692690046257
| 32>   C   1.35094144436591     -0.26230725114066     -0.69881403264709
| 33>   C   1.94688597063359     -0.00496654255395      0.53920031926783
| 34>   C   3.07679936252146     -0.71969629348913      0.94019625693889
| 35>   C   3.61924589794024     -1.69612532263974      0.10713762669899
| 36>   C   3.02996030847738     -1.95696656269877     -1.13009339521383
| 37>   C   1.90180972561401     -1.24423939495420     -1.52907604560632
| 38>   H   -2.55150287962271     -0.98301564009117     -1.67133662280278
| 39>   H   -2.72699905167840     -2.68976020864396     -1.21151578990508
| 40>   H   -3.65100736914617     -1.44018058171272     -0.34829743600316
| 41>   H   -1.71755357965920     -2.23668912394743      1.03187817069769
| 42>   H   -0.58343015794551     -1.84239684206119     -0.26428300384583
| 43>   H   -2.53591818797347     -0.59779976004754      2.51857677753193
| 44>   H   -2.45102953377661      1.69919926173010      3.42159349361009
| 45>   H   -1.29930508239734      3.52610287198823      2.17007068351454
| 46>   H   -0.19913322159403      2.99849743929864     -0.00022446185054
| 47>   H   -1.65271981310572      1.56797030439317     -0.38838202245857
| 48>   H   -0.44179865640542     -0.14906568239647     -1.84087744213184
| 49>   H   -0.27955694111637      2.32334691149661     -2.38784374519139
| 50>   H   1.11968485488559      1.36930983851969     -2.92113417396329
| 51>   H   1.27039254218064      2.37513124915290     -1.48089594882900
| 52>   H   1.53569681545836      0.75456089073237      1.21146469182382
| 53>   H   3.53275074936043     -0.51506699357689      1.90969635936944
| 54>   H   4.49982913418016     -2.25710751752107      0.42220215318176
| 55>   H   3.44789053484584     -2.72039185855955     -1.78733159670549
| 56>   H   1.44274582076888     -1.45307412107982     -2.49927849140904
| 57> *
| 58>
| 59>                          ****END OF INPUT****
 Total Charge           Charge          ....    1
 Multiplicity           Mult            ....    1
 Number of Electrons    NEL             ....  114
FINAL SINGLE POINT ENERGY      -620.115938837607
FINAL SINGLE POINT ENERGY      -620.114627842477
FINAL SINGLE POINT ENERGY      -620.113879342273
FINAL SINGLE POINT ENERGY      -620.113929058517
FINAL SINGLE POINT ENERGY      -620.114059478057
FINAL SINGLE POINT ENERGY      -620.114094935087
FINAL SINGLE POINT ENERGY      -620.114102833470
FINAL SINGLE POINT ENERGY      -620.114111961471
FINAL SINGLE POINT ENERGY      -620.114111228654
                    ***********************HURRAY********************

CARTESIAN COORDINATES (ANGSTROEM)
---------------------------------
  C     -2.649489   -1.703267   -0.824887
  C     -1.521574   -1.553101    0.206610
  C     -1.440546   -0.153065    0.747209
  C     -2.112564    0.196309    1.907336
  C     -2.096989    1.504848    2.433332
  C     -1.413187    2.512513    1.788158
  C     -0.714664    2.210285    0.596470
  C     -0.703763    0.870467    0.045739
  C      0.164321    0.534888   -1.157700
  C      0.596515    1.749622   -1.983664
  C      1.373828   -0.268769   -0.691938
  C      2.054081    0.037206    0.490576
  C      3.187700   -0.689186    0.857928
  C      3.649346   -1.723953    0.046271
  C      2.975542   -2.032032   -1.135859
  C      1.843254   -1.308088   -1.501755
  H     -2.517681   -1.024336   -1.680404
  H     -2.669131   -2.730370   -1.210625
  H     -3.627706   -1.490693   -0.372035
  H     -1.704562   -2.236320    1.047428
  H     -0.557139   -1.844140   -0.230810
  H     -2.670477   -0.579137    2.436963
  H     -2.643154    1.719951    3.352990
  H     -1.397215    3.531973    2.172346
  H     -0.151401    2.984516    0.073492
  H     -1.587198    1.758637   -0.288280
  H     -0.435318   -0.125248   -1.801794
  H     -0.259551    2.351797   -2.326960
  H      1.134645    1.397974   -2.872700
  H      1.293136    2.389387   -1.423438
  H      1.708117    0.846595    1.140207
  H      3.712946   -0.444366    1.781844
  H      4.533362   -2.293352    0.335474
  H      3.330106   -2.842070   -1.774268
  H      1.316210   -1.555376   -2.427155

 Multiplicity           Mult            ....    1
 Number of Electrons    NEL             ....  114
 Basis Dimension        Dim             ....  319

ORBITAL ENERGIES
----------------

  NO   OCC          E(Eh)            E(eV)
   0   2.0000     -10.789943      -293.6093
   1   2.0000     -10.787390      -293.5398
   2   2.0000     -10.755140      -292.6622
   3   2.0000     -10.747772      -292.4617
   4   2.0000     -10.746849      -292.4366
   5   2.0000     -10.741247      -292.2842
   6   2.0000     -10.724529      -291.8293
   7   2.0000     -10.697730      -291.1000
   8   2.0000     -10.690891      -290.9139
   9   2.0000     -10.688411      -290.8465
  10   2.0000     -10.678592      -290.5793
  11   2.0000     -10.677008      -290.5362
  12   2.0000     -10.672798      -290.4216
  13   2.0000     -10.668246      -290.2977
  14   2.0000     -10.666606      -290.2531
  15   2.0000     -10.663732      -290.1749
  16   2.0000      -1.175109       -31.9763
  17   2.0000      -1.084649       -29.5148
  18   2.0000      -1.058767       -28.8105
  19   2.0000      -1.052831       -28.6490
  20   2.0000      -1.002972       -27.2923
  21   2.0000      -0.970841       -26.4179
  22   2.0000      -0.946283       -25.7497
  23   2.0000      -0.935243       -25.4493
  24   2.0000      -0.890839       -24.2410
  25   2.0000      -0.880118       -23.9492
  26   2.0000      -0.835011       -22.7218
  27   2.0000      -0.821700       -22.3596
  28   2.0000      -0.801247       -21.8030
  29   2.0000      -0.778637       -21.1878
  30   2.0000      -0.748176       -20.3589
  31   2.0000      -0.738008       -20.0822
  32   2.0000      -0.719253       -19.5719
  33   2.0000      -0.699111       -19.0238
  34   2.0000      -0.692847       -18.8533
  35   2.0000      -0.662917       -18.0389
  36   2.0000      -0.661571       -18.0023
  37   2.0000      -0.650681       -17.7059
  38   2.0000      -0.636719       -17.3260
  39   2.0000      -0.624271       -16.9873
  40   2.0000      -0.621709       -16.9176
  41   2.0000      -0.607321       -16.5261
  42   2.0000      -0.601114       -16.3572
  43   2.0000      -0.597913       -16.2700
  44   2.0000      -0.586229       -15.9521
  45   2.0000      -0.585581       -15.9345
  46   2.0000      -0.568273       -15.4635
  47   2.0000      -0.562403       -15.3038
  48   2.0000      -0.549790       -14.9605
  49   2.0000      -0.545280       -14.8378
  50   2.0000      -0.533784       -14.5250
  51   2.0000      -0.529747       -14.4151
  52   2.0000      -0.515150       -14.0179
  53   2.0000      -0.512547       -13.9471
  54   2.0000      -0.481432       -13.1004
  55   2.0000      -0.420641       -11.4462
  56   2.0000      -0.415758       -11.3134
  57   0.0000      -0.191632        -5.2146
  58   0.0000      -0.183408        -4.9908
  59   0.0000      -0.093116        -2.5338
  60   0.0000      -0.088382        -2.4050
  61   0.0000      -0.087995        -2.3945

MULLIKEN ATOMIC CHARGES
-----------------------
   0 C :   -0.068509
   1 C :   -0.014681
   2 C :   -0.037934
   3 C :   -0.016842
   4 C :    0.050010
   5 C :    0.022680
   6 C :   -0.052678
   7 C :   -0.117079
   8 C :   -0.029129
   9 C :    0.001986
  10 C :   -0.051169
  11 C :   -0.026664
  12 C :   -0.003068
  13 C :   -0.001200
  14 C :   -0.003258
  15 C :   -0.032693
  16 H :    0.053063
  17 H :    0.093802
  18 H :    0.061126
  19 H :    0.073060
  20 H :    0.080351
  21 H :    0.071944
  22 H :    0.089461
  23 H :    0.086710
  24 H :    0.106448
  25 H :    0.213904
  26 H :    0.050775
  27 H :    0.063169
  28 H :    0.084438
  29 H :    0.068042
  30 H :    0.008002
  31 H :    0.044205
  32 H :    0.051712
  33 H :    0.048826
  34 H :    0.031189
Sum of atomic charges:    1.0000000

LOEWDIN ATOMIC CHARGES
----------------------
   0 C :   -0.049882
   1 C :   -0.036295
   2 C :    0.029132
   3 C :    0.028462
   4 C :    0.050220
   5 C :    0.001938
   6 C :    0.062984
   7 C :    0.045073
   8 C :   -0.027290
   9 C :   -0.046206
  10 C :   -0.037340
  11 C :   -0.043066
  12 C :   -0.009327
  13 C :   -0.009209
  14 C :   -0.006891
  15 C :   -0.031491
  16 H :    0.027875
  17 H :    0.051639
  18 H :    0.037579
  19 H :    0.052581
  20 H :    0.049579
  21 H :    0.061659
  22 H :    0.066618
  23 H :    0.066671
  24 H :    0.073110
  25 H :    0.209744
  26 H :    0.047361
  27 H :    0.032935
  28 H :    0.056567
  29 H :    0.038348
  30 H :    0.028736
  31 H :    0.045302
  32 H :    0.047476
  33 H :    0.047400
  34 H :    0.038010

  Mayer bond orders larger than 0.100000
B(  0-C ,  1-C ) :   1.0819 B(  0-C , 16-H ) :   0.9675 B(  0-C , 17-H ) :   0.9651
B(  0-C , 18-H ) :   0.9665 B(  1-C ,  2-C ) :   1.0540 B(  1-C , 19-H ) :   0.9199
B(  1-C , 20-H ) :   0.9128 B(  2-C ,  3-C ) :   1.4884 B(  2-C ,  7-C ) :   1.2199
B(  3-C ,  4-C ) :   1.2856 B(  3-C , 21-H ) :   0.9838 B(  4-C ,  5-C ) :   1.4550
B(  4-C , 22-H ) :   0.9833 B(  5-C ,  6-C ) :   1.2558 B(  5-C , 23-H ) :   0.9888
B(  6-C ,  7-C ) :   0.9408 B(  6-C , 24-H ) :   0.9798 B(  6-C , 25-H ) :   0.4530
B(  7-C ,  8-C ) :   0.9866 B(  7-C , 25-H ) :   0.4304 B(  8-C ,  9-C ) :   1.0756
B(  8-C , 10-C ) :   0.9887 B(  8-C , 26-H ) :   0.8924 B(  9-C , 27-H ) :   0.9648
B(  9-C , 28-H ) :   0.9496 B(  9-C , 29-H ) :   0.9420 B( 10-C , 11-C ) :   1.3761
B( 10-C , 15-C ) :   1.3831 B( 11-C , 12-C ) :   1.4003 B( 11-C , 30-H ) :   0.9883
B( 12-C , 13-C ) :   1.3979 B( 12-C , 31-H ) :   0.9851 B( 13-C , 14-C ) :   1.3855
B( 13-C , 32-H ) :   0.9879 B( 14-C , 15-C ) :   1.4042 B( 14-C , 33-H ) :   0.9858
B( 15-C , 34-H ) :   0.9915

FINAL SINGLE POINT ENERGY      -620.114112682011

DIPOLE MOMENT
-------------
                                X             Y             Z
Electronic contribution:      4.07895       1.72664       5.96739
Nuclear contribution   :     -5.95696      -0.34457      -5.31814
                        -----------------------------------------
Total Dipole Moment    :     -1.87801       1.38207       0.64926
                        -----------------------------------------
Magnitude (a.u.)       :      2.42045
Magnitude (Debye)      :      6.15229

VIBRATIONAL FREQUENCIES
-----------------------

Scaling factor for frequencies =  1.000000000 (already applied!)

   0:         0.00 cm**-1
   1:         0.00 cm**-1
   2:         0.00 cm**-1
   3:         0.00 cm**-1
   4:         0.00 cm**-1
   5:         0.00 cm**-1
   6:      -492.81 cm**-1 ***imaginary mode***
   7:        34.89 cm**-1
   8:        50.60 cm**-1
   9:        67.55 cm**-1
  10:        99.94 cm**-1
  11:       119.65 cm**-1
  12:       155.36 cm**-1
  13:       160.43 cm**-1
  14:       218.10 cm**-1
  15:       225.41 cm**-1
  16:       289.31 cm**-1
  17:       290.47 cm**-1
  18:       312.25 cm**-1
  19:       331.03 cm**-1
  20:       354.29 cm**-1
  21:       411.68 cm**-1
  22:       449.64 cm**-1
  23:       461.49 cm**-1
  24:       505.57 cm**-1
  25:       554.34 cm**-1
  26:       557.63 cm**-1
  27:       596.74 cm**-1
  28:       619.86 cm**-1
  29:       634.53 cm**-1
  30:       722.84 cm**-1
  31:       730.16 cm**-1
  32:       771.05 cm**-1
  33:       776.68 cm**-1
  34:       788.74 cm**-1
  35:       791.97 cm**-1
  36:       813.53 cm**-1
  37:       840.15 cm**-1
  38:       851.20 cm**-1
  39:       934.91 cm**-1
  40:       949.15 cm**-1
  41:       980.01 cm**-1
  42:       990.92 cm**-1
  43:      1002.15 cm**-1
  44:      1004.33 cm**-1
  45:      1014.11 cm**-1
  46:      1042.75 cm**-1
  47:      1050.95 cm**-1
  48:      1055.53 cm**-1
  49:      1059.75 cm**-1
  50:      1073.21 cm**-1
  51:      1076.76 cm**-1
  52:      1080.16 cm**-1
  53:      1094.85 cm**-1
  54:      1110.77 cm**-1
  55:      1121.95 cm**-1
  56:      1143.44 cm**-1
  57:      1182.39 cm**-1
  58:      1189.21 cm**-1
  59:      1200.85 cm**-1
  60:      1204.03 cm**-1
  61:      1220.15 cm**-1
  62:      1249.43 cm**-1
  63:      1259.23 cm**-1
  64:      1288.85 cm**-1
  65:      1307.16 cm**-1
  66:      1342.88 cm**-1
  67:      1346.39 cm**-1
  68:      1361.97 cm**-1
  69:      1383.47 cm**-1
  70:      1393.12 cm**-1
  71:      1397.88 cm**-1
  72:      1405.43 cm**-1
  73:      1464.28 cm**-1
  74:      1465.99 cm**-1
  75:      1469.83 cm**-1
  76:      1473.35 cm**-1
  77:      1477.31 cm**-1
  78:      1481.65 cm**-1
  79:      1502.44 cm**-1
  80:      1505.57 cm**-1
  81:      1549.36 cm**-1
  82:      1634.82 cm**-1
  83:      1682.60 cm**-1
  84:      1692.88 cm**-1
  85:      1701.89 cm**-1
  86:      2170.10 cm**-1
  87:      3075.32 cm**-1
  88:      3082.49 cm**-1
  89:      3114.11 cm**-1
  90:      3116.99 cm**-1
  91:      3164.79 cm**-1
  92:      3168.75 cm**-1
  93:      3179.85 cm**-1
  94:      3195.22 cm**-1
  95:      3195.47 cm**-1
  96:      3197.07 cm**-1
  97:      3213.66 cm**-1
  98:      3238.69 cm**-1
  99:      3242.69 cm**-1
 100:      3249.79 cm**-1
 101:      3255.75 cm**-1
 102:      3259.79 cm**-1
 103:      3260.41 cm**-1
 104:      3273.43 cm**-1

IR SPECTRUM
-----------

 Mode   freq       eps      Int      T**2         TX        TY        TZ
       cm**-1   L/(mol*cm) km/mol    a.u.
----------------------------------------------------------------------------
  7:     34.89   0.000032    0.16  0.000290  ( 0.000645 -0.014075  0.009556)
  8:     50.60   0.000021    0.11  0.000128  (-0.007488  0.007900  0.003139)
  9:     67.55   0.000217    1.10  0.001004  (-0.027220  0.016127  0.001621)
 10:     99.94   0.000096    0.48  0.000299  ( 0.010936  0.006118  0.011900)
 11:    119.65   0.000166    0.84  0.000433  ( 0.018626  0.004730  0.007956)
 12:    155.36   0.000338    1.71  0.000679  (-0.022991 -0.010356  0.006582)
 13:    160.43   0.000134    0.68  0.000261  (-0.013397 -0.008868  0.001613)
 14:    218.10   0.000055    0.28  0.000078  (-0.007645 -0.003457  0.002769)
 15:    225.41   0.000050    0.25  0.000069  (-0.001943 -0.007363 -0.003277)
 16:    289.31   0.000711    3.59  0.000766  (-0.018205  0.007183  0.019581)
 17:    290.47   0.000186    0.94  0.000200  ( 0.004883 -0.010403 -0.008246)
 18:    312.25   0.000032    0.16  0.000032  ( 0.005009  0.001756  0.001994)
 19:    331.03   0.000052    0.26  0.000049  ( 0.003069 -0.006295 -0.000069)
 20:    354.29   0.000046    0.23  0.000040  ( 0.002703  0.004916 -0.002986)
 21:    411.68   0.000012    0.06  0.000009  ( 0.001816 -0.002168 -0.001171)
 22:    449.64   0.001034    5.22  0.000718  (-0.023893 -0.010419 -0.006176)
 23:    461.49   0.000177    0.89  0.000120  (-0.005517 -0.008291 -0.004532)
 24:    505.57   0.000550    2.78  0.000339  (-0.008629  0.013951 -0.008387)
 25:    554.34   0.002386   12.06  0.001343  (-0.030615 -0.013968  0.014523)
 26:    557.63   0.002440   12.33  0.001366  ( 0.017264  0.010161 -0.031054)
 27:    596.74   0.000408    2.06  0.000213  ( 0.014147  0.003086  0.001946)
 28:    619.86   0.000229    1.16  0.000115  (-0.010503  0.001623 -0.001542)
 29:    634.53   0.000058    0.29  0.000028  ( 0.005017 -0.001208 -0.001288)
 30:    722.84   0.005975   30.19  0.002579  (-0.029486 -0.030009  0.028450)
 31:    730.16   0.001555    7.86  0.000665  ( 0.014057  0.020720 -0.006146)
 32:    771.05   0.001637    8.27  0.000663  ( 0.013089 -0.008560  0.020448)
 33:    776.68   0.002055   10.39  0.000826  ( 0.024177  0.015517  0.000738)
 34:    788.74   0.000210    1.06  0.000083  ( 0.004409  0.007627 -0.002328)
 35:    791.97   0.002352   11.89  0.000927  ( 0.026088  0.010831 -0.011351)
 36:    813.53   0.004794   24.23  0.001839  ( 0.033184 -0.023821  0.013058)
 37:    840.15   0.000952    4.81  0.000354  ( 0.016943 -0.004639  0.006704)
 38:    851.20   0.000063    0.32  0.000023  (-0.002065 -0.001210  0.004183)
 39:    934.91   0.000995    5.03  0.000332  ( 0.000503  0.000583  0.018209)
 40:    949.15   0.000081    0.41  0.000027  (-0.004698  0.002043 -0.000732)
 41:    980.01   0.000487    2.46  0.000155  (-0.001015  0.012132  0.002604)
 42:    990.92   0.000100    0.50  0.000031  (-0.002149  0.003468  0.003844)
 43:   1002.15   0.000053    0.27  0.000016  ( 0.001127 -0.003514 -0.001684)
 44:   1004.33   0.000910    4.60  0.000283  ( 0.005151 -0.004403 -0.015390)
 45:   1014.11   0.001570    7.94  0.000483  ( 0.017527 -0.011829 -0.006012)
 46:   1042.75   0.000003    0.02  0.000001  ( 0.000410  0.000537 -0.000738)
 47:   1050.95   0.000528    2.67  0.000157  ( 0.011919 -0.002007  0.003272)
 48:   1055.53   0.000070    0.36  0.000021  (-0.003333 -0.002636  0.001654)
 49:   1059.75   0.000388    1.96  0.000114  ( 0.001337 -0.010229 -0.002785)
 50:   1073.21   0.000235    1.19  0.000068  ( 0.007633  0.000301  0.003178)
 51:   1076.76   0.001701    8.59  0.000493  (-0.011617 -0.015914 -0.010232)
 52:   1080.16   0.001304    6.59  0.000377  (-0.018880 -0.001282  0.004310)
 53:   1094.85   0.002505   12.66  0.000714  (-0.018205  0.017742  0.008227)
 54:   1110.77   0.004388   22.18  0.001233  (-0.004184  0.031399 -0.015145)
 55:   1121.95   0.001565    7.91  0.000435  ( 0.001847  0.010131  0.018144)
 56:   1143.44   0.000288    1.46  0.000079  ( 0.004692 -0.005947 -0.004620)
 57:   1182.39   0.000009    0.05  0.000002  ( 0.000122  0.000031  0.001553)
 58:   1189.21   0.000756    3.82  0.000198  (-0.011144 -0.004379  0.007425)
 59:   1200.85   0.000127    0.64  0.000033  (-0.000969  0.000133  0.005654)
 60:   1204.03   0.000599    3.03  0.000155  ( 0.005629 -0.007282 -0.008405)
 61:   1220.15   0.000720    3.64  0.000184  ( 0.006229 -0.007046  0.009778)
 62:   1249.43   0.000242    1.22  0.000060  (-0.000760 -0.005826  0.005088)
 63:   1259.23   0.001248    6.31  0.000309  (-0.015442  0.001152  0.008334)
 64:   1288.85   0.002743   13.86  0.000664  (-0.018798  0.003261  0.017328)
 65:   1307.16   0.000791    4.00  0.000189  ( 0.000214  0.003143  0.013375)
 66:   1342.88   0.000324    1.64  0.000075  (-0.007576 -0.004234 -0.000279)
 67:   1346.39   0.000481    2.43  0.000111  (-0.006518  0.001540  0.008156)
 68:   1361.97   0.000795    4.02  0.000182  ( 0.006056 -0.001393 -0.011983)
 69:   1383.47   0.000951    4.81  0.000215  ( 0.008911  0.007582 -0.008812)
 70:   1393.12   0.000985    4.98  0.000221  ( 0.013559 -0.005894 -0.001467)
 71:   1397.88   0.003344   16.90  0.000747  ( 0.012736  0.017098 -0.017090)
 72:   1405.43   0.000036    0.18  0.000008  ( 0.001754 -0.001443 -0.001688)
 73:   1464.28   0.000825    4.17  0.000176  (-0.007814 -0.004599 -0.009679)
 74:   1465.99   0.005456   27.57  0.001161  ( 0.028676  0.009523 -0.015760)
 75:   1469.83   0.001126    5.69  0.000239  (-0.009821  0.004868 -0.010905)
 76:   1473.35   0.008855   44.75  0.001876  ( 0.028646 -0.004339 -0.032189)
 77:   1477.31   0.000373    1.89  0.000079  (-0.005420 -0.000743 -0.006996)
 78:   1481.65   0.003241   16.38  0.000683  (-0.006202 -0.000215  0.025380)
 79:   1502.44   0.008070   40.78  0.001676  (-0.006929 -0.037863 -0.013944)
 80:   1505.57   0.002906   14.69  0.000602  (-0.001034 -0.024253  0.003611)
 81:   1549.36   0.003240   16.37  0.000652  (-0.021623  0.011960 -0.006472)
 82:   1634.82   0.001444    7.30  0.000276  (-0.014195 -0.006507 -0.005635)
 83:   1682.60   0.002396   12.11  0.000444  ( 0.001384  0.013421  0.016195)
 84:   1692.88   0.000458    2.31  0.000084  (-0.004237 -0.005198 -0.006282)
 85:   1701.89   0.000567    2.86  0.000104  ( 0.006604 -0.006518 -0.004221)
 86:   2170.10   0.004594   23.21  0.000661  (-0.012294  0.004697 -0.022076)
 87:   3075.32   0.001726    8.72  0.000175  (-0.007691  0.010545 -0.002183)
 88:   3082.49   0.001267    6.40  0.000128  ( 0.006713 -0.002005  0.008896)
 89:   3114.11   0.000358    1.81  0.000036  ( 0.005194  0.001132  0.002764)
 90:   3116.99   0.000505    2.55  0.000051  ( 0.003560  0.005309 -0.003113)
 91:   3164.79   0.001453    7.34  0.000143  (-0.009782 -0.004643  0.005103)
 92:   3168.75   0.002309   11.67  0.000227  (-0.013104  0.003228 -0.006726)
 93:   3179.85   0.001379    6.97  0.000135  ( 0.005408  0.006569 -0.007934)
 94:   3195.22   0.002079   10.51  0.000203  (-0.008124  0.010204  0.005740)
 95:   3195.47   0.000034    0.17  0.000003  ( 0.000377 -0.000779 -0.001618)
 96:   3197.07   0.000633    3.20  0.000062  (-0.003186  0.007112  0.001032)
 97:   3213.66   0.000451    2.28  0.000044  (-0.004815  0.000903 -0.004448)
 98:   3238.69   0.000178    0.90  0.000017  (-0.002110 -0.000648  0.003504)
 99:   3242.69   0.000002    0.01  0.000000  (-0.000081  0.000411 -0.000238)
100:   3249.79   0.000200    1.01  0.000019  ( 0.000796  0.002127  0.003748)
101:   3255.75   0.000025    0.12  0.000002  ( 0.000662 -0.000419 -0.001319)
102:   3259.79   0.002551   12.89  0.000244  (-0.008681 -0.008657  0.009691)
103:   3260.41   0.000072    0.37  0.000007  ( 0.002281 -0.001092  0.000730)
104:   3273.43   0.002535   12.81  0.000242  (-0.000140 -0.014505 -0.005588)

--------------------------
THERMOCHEMISTRY AT 298.15K
--------------------------

Temperature         ... 298.15 K
Pressure            ... 1.00 atm
Total Mass          ... 211.33 AMU

Throughout the following assumptions are being made:
  (1) The electronic state is orbitally nondegenerate
  (2) There are no thermally accessible electronically excited states
  (3) Hindered rotations indicated by low frequency modes are not
      treated as such but are treated as vibrations and this may
      cause some error
  (4) All equations used are the standard statistical mechanics
      equations for an ideal gas
  (5) All vibrations are strictly harmonic

freq.      34.89  E(vib)   ...       0.54
freq.      50.60  E(vib)   ...       0.52
freq.      67.55  E(vib)   ...       0.50
freq.      99.94  E(vib)   ...       0.46
freq.     119.65  E(vib)   ...       0.44
freq.     155.36  E(vib)   ...       0.40
freq.     160.43  E(vib)   ...       0.39
freq.     218.10  E(vib)   ...       0.33
freq.     225.41  E(vib)   ...       0.33
freq.     289.31  E(vib)   ...       0.27
freq.     290.47  E(vib)   ...       0.27
freq.     312.25  E(vib)   ...       0.25
freq.     331.03  E(vib)   ...       0.24
freq.     354.29  E(vib)   ...       0.22
freq.     411.68  E(vib)   ...       0.19
freq.     449.64  E(vib)   ...       0.17
freq.     461.49  E(vib)   ...       0.16
freq.     505.57  E(vib)   ...       0.14
freq.     554.34  E(vib)   ...       0.12
freq.     557.63  E(vib)   ...       0.12
freq.     596.74  E(vib)   ...       0.10
freq.     619.86  E(vib)   ...       0.09
freq.     634.53  E(vib)   ...       0.09
freq.     722.84  E(vib)   ...       0.07
freq.     730.16  E(vib)   ...       0.06
freq.     771.05  E(vib)   ...       0.05
freq.     776.68  E(vib)   ...       0.05
freq.     788.74  E(vib)   ...       0.05
freq.     791.97  E(vib)   ...       0.05
freq.     813.53  E(vib)   ...       0.05
freq.     840.15  E(vib)   ...       0.04
freq.     851.20  E(vib)   ...       0.04
freq.     934.91  E(vib)   ...       0.03
freq.     949.15  E(vib)   ...       0.03
freq.     980.01  E(vib)   ...       0.02
freq.     990.92  E(vib)   ...       0.02
freq.    1002.15  E(vib)   ...       0.02
freq.    1004.33  E(vib)   ...       0.02
freq.    1014.11  E(vib)   ...       0.02
freq.    1042.75  E(vib)   ...       0.02
freq.    1050.95  E(vib)   ...       0.02
freq.    1055.53  E(vib)   ...       0.02
freq.    1059.75  E(vib)   ...       0.02
freq.    1073.21  E(vib)   ...       0.02
freq.    1076.76  E(vib)   ...       0.02
freq.    1080.16  E(vib)   ...       0.02
freq.    1094.85  E(vib)   ...       0.02
freq.    1110.77  E(vib)   ...       0.01
freq.    1121.95  E(vib)   ...       0.01
freq.    1143.44  E(vib)   ...       0.01
freq.    1182.39  E(vib)   ...       0.01
freq.    1189.21  E(vib)   ...       0.01
freq.    1200.85  E(vib)   ...       0.01
freq.    1204.03  E(vib)   ...       0.01
freq.    1220.15  E(vib)   ...       0.01
freq.    1249.43  E(vib)   ...       0.01
freq.    1259.23  E(vib)   ...       0.01
freq.    1288.85  E(vib)   ...       0.01
freq.    1307.16  E(vib)   ...       0.01
freq.    1342.88  E(vib)   ...       0.01
freq.    1346.39  E(vib)   ...       0.01
freq.    1361.97  E(vib)   ...       0.01
freq.    1383.47  E(vib)   ...       0.00
freq.    1393.12  E(vib)   ...       0.00
freq.    1397.88  E(vib)   ...       0.00
freq.    1405.43  E(vib)   ...       0.00
freq.    1464.28  E(vib)   ...       0.00
freq.    1465.99  E(vib)   ...       0.00
freq.    1469.83  E(vib)   ...       0.00
freq.    1473.35  E(vib)   ...       0.00
freq.    1477.31  E(vib)   ...       0.00
freq.    1481.65  E(vib)   ...       0.00
freq.    1502.44  E(vib)   ...       0.00
freq.    1505.57  E(vib)   ...       0.00
freq.    1549.36  E(vib)   ...       0.00
freq.    1634.82  E(vib)   ...       0.00
freq.    1682.60  E(vib)   ...       0.00
freq.    1692.88  E(vib)   ...       0.00
freq.    1701.89  E(vib)   ...       0.00
freq.    2170.10  E(vib)   ...       0.00
freq.    3075.32  E(vib)   ...       0.00
freq.    3082.49  E(vib)   ...       0.00
freq.    3114.11  E(vib)   ...       0.00
freq.    3116.99  E(vib)   ...       0.00
freq.    3164.79  E(vib)   ...       0.00
freq.    3168.75  E(vib)   ...       0.00
freq.    3179.85  E(vib)   ...       0.00
freq.    3195.22  E(vib)   ...       0.00
freq.    3195.47  E(vib)   ...       0.00
freq.    3197.07  E(vib)   ...       0.00
freq.    3213.66  E(vib)   ...       0.00
freq.    3238.69  E(vib)   ...       0.00
freq.    3242.69  E(vib)   ...       0.00
freq.    3249.79  E(vib)   ...       0.00
freq.    3255.75  E(vib)   ...       0.00
freq.    3259.79  E(vib)   ...       0.00
freq.    3260.41  E(vib)   ...       0.00
freq.    3273.43  E(vib)   ...       0.00

------------
INNER ENERGY
------------

The inner energy is: U= E(el) + E(ZPE) + E(vib) + E(rot) + E(trans)
    E(el)   - is the total energy from the electronic structure calculation
              = E(kin-el) + E(nuc-el) + E(el-el) + E(nuc-nuc)
    E(ZPE)  - the the zero temperature vibrational energy from the frequency calculation
    E(vib)  - the the finite temperature correction to E(ZPE) due to population
              of excited vibrational states
    E(rot)  - is the rotational thermal energy
    E(trans)- is the translational thermal energy

Summary of contributions to the inner energy U:
Electronic energy                ...   -620.11411269 Eh
Zero point energy                ...      0.30495907 Eh     191.36 kcal/mol
Thermal vibrational correction   ...      0.01168620 Eh       7.33 kcal/mol
Thermal rotational correction    ...      0.00141627 Eh       0.89 kcal/mol
Thermal translational correction ...      0.00141627 Eh       0.89 kcal/mol
-----------------------------------------------------------------------
Total thermal energy                   -619.79463488 Eh

Summary of corrections to the electronic energy:
(perhaps to be used in another calculation)
Total thermal correction                  0.01451874 Eh       9.11 kcal/mol
Non-thermal (ZPE) correction              0.30495907 Eh     191.36 kcal/mol
-----------------------------------------------------------------------
Total correction                          0.31947781 Eh     200.47 kcal/mol

--------
ENTHALPY
--------

The enthalpy is H = U + kB*T
                kB is Boltzmann's constant
Total free energy                 ...   -619.79463488 Eh
Thermal Enthalpy correction       ...      0.00094421 Eh       0.59 kcal/mol
-----------------------------------------------------------------------
Total Enthalpy                    ...   -619.79369067 Eh

Note: Only C1 symmetry has been detected, increase convergence thresholds
      if your molecule has a higher symmetry. Symmetry factor of 1.0 is

Rotational constants in cm-1:     0.026558     0.012716     0.011642

                             ****ORCA TERMINATED NORMALLY****
TOTAL RUN TIME: 0 days 1 hours 43 minutes 20 seconds 611 msec
