   * xtb version 6.7.1 (edcfbbe) compiled by 'conda@c0858423619e' on 2025-09-04

   ID    Z sym.   atoms
    1    6 C      1-16
    2    1 H      17-35

          program call               : /home/paufv/miniforge3/envs/htvs/bin/xtb gfn_opt.xyz --opt normal --parallel 4 --chrg 0 --uhf 0 --gfn2 --input xtb.inp
          :  Hamiltonian                  GFN2-xTB          :
 * total energy  :   -43.8667401 Eh     change       -0.2223715E-09 Eh
 * total energy  :   -43.8745841 Eh     change       -0.7844064E-02 Eh
 * total energy  :   -43.8764882 Eh     change       -0.1904083E-02 Eh
 * total energy  :   -43.8767936 Eh     change       -0.3053554E-03 Eh
 * total energy  :   -43.8769514 Eh     change       -0.1578455E-03 Eh
 * total energy  :   -43.8770428 Eh     change       -0.9138334E-04 Eh
 * total energy  :   -43.8771479 Eh     change       -0.1051255E-03 Eh
 * total energy  :   -43.8772460 Eh     change       -0.9812584E-04 Eh
 * total energy  :   -43.8772936 Eh     change       -0.4758714E-04 Eh
 * total energy  :   -43.8773173 Eh     change       -0.2362268E-04 Eh
 * total energy  :   -43.8773268 Eh     change       -0.9545532E-05 Eh
 * total energy  :   -43.8773350 Eh     change       -0.8213680E-05 Eh
 * total energy  :   -43.8773403 Eh     change       -0.5324263E-05 Eh
 * total energy  :   -43.8773453 Eh     change       -0.4933649E-05 Eh
   *** GEOMETRY OPTIMIZATION CONVERGED AFTER 14 ITERATIONS ***

 final structure:
================
35
 xtb: 6.7.1 (edcfbbe)
C           -1.67804106370854        2.12190473722259       -1.53384349155820
C           -1.06847810738028        1.10838666315933       -0.57479146923823
C           -1.13731087273073       -0.35772357983850       -1.10533023318568
C           -2.56477424528390       -0.74271196258610       -1.31572076686842
C           -3.21735397451588       -1.60679613451757       -0.50285767010183
C           -2.53684783214471       -2.28140698116622        0.52211572107136
C           -1.14880002944946       -2.14077530572610        0.62646139011027
C           -0.43211025382797       -1.28667722205986       -0.16016763384882
C            1.07708996832546       -1.27360672472183       -0.07097148436956
C            1.72532801785017       -1.40941609076713       -1.45075358360556
C            1.57029661517030       -0.07900890311183        0.72736067262242
C            2.50950937965340        0.82585596326348        0.25047920888666
C            2.92421807664465        1.89191546215598        1.03246538876903
C            2.41196472135975        2.06955138230121        2.30404203255794
C            1.48256670133594        1.16703585759499        2.79448403560896
C            1.07009659057707        0.10462377232962        2.01411927290541
H           -1.51141263028102        3.12928142787392       -1.15793806586727
H           -1.21917927804857        2.04521785354540       -2.51779908709175
H           -2.74942767570919        1.97443222742636       -1.63818038082976
H           -1.58358898252348        1.14906833592930        0.38683922094400
H           -0.02278448041659        1.36522532878755       -0.40582902865413
H           -0.62492243688600       -0.35013120003208       -2.07695578075747
H           -3.08105239839820       -0.26392299831874       -2.13360516796116
H           -4.26745316747363       -1.81020371065591       -0.66016672553680
H           -3.06425583404433       -2.95754475328363        1.17565393002403
H           -0.62487238268161       -2.76932147312810        1.33596791202939
H            1.36425878837330       -2.16223516942818        0.50777719031704
H            2.79511424257460       -1.57850589685367       -1.34856027471128
H            1.56949617049058       -0.52178922994444       -2.05828670644408
H            1.29313196522322       -2.26276943735262       -1.96994056371546
H            2.92927291977643        0.71448566296706       -0.73683465653101
H            3.65373975478249        2.58653784049154        0.64106356696664
H            2.73539353007273        2.90272517746471        2.91022168657830
H            1.07912785981094        1.29184307870901        3.78894613691454
H            0.34186034348178       -0.59354399772778        2.40043540457100

          :  Hamiltonian                  GFN2-xTB          :
         :: total energy             -43.877345270479 Eh    ::
         :: gradient norm              0.000506130158 Eh/a0 ::
         :: HOMO-LUMO gap              2.215173883741 eV    ::
         :: SCC energy               -44.661103815623 Eh    ::
         :: -> dispersion             -0.036355003896 Eh    ::
         :: repulsion energy           0.783758545144 Eh    ::

    * Orbital Energies and Occupations

         #    Occupation            Energy/Eh            Energy/eV
      -------------------------------------------------------------
         1        2.0000           -0.6425953             -17.4859
       ...           ...                  ...                  ...
        30        2.0000           -0.4529264             -12.3248
        31        2.0000           -0.4479986             -12.1907
        32        2.0000           -0.4426334             -12.0447
        33        2.0000           -0.4336482             -11.8002
        34        2.0000           -0.4282130             -11.6523
        35        2.0000           -0.4224203             -11.4946
        36        2.0000           -0.4180828             -11.3766
        37        2.0000           -0.4113443             -11.1932
        38        2.0000           -0.4084604             -11.1148
        39        2.0000           -0.3997389             -10.8774
        40        2.0000           -0.3920809             -10.6691
        41        2.0000           -0.3858023             -10.4982
        42        1.0000           -0.3002727              -8.1708 (HOMO)
        43                         -0.2188666              -5.9557 (LUMO)
        44                         -0.2182078              -5.9377
        45                         -0.2041514              -5.5552
        46                         -0.1231816              -3.3519
        47                         -0.0893202              -2.4305
        48                          0.0700456               1.9060
        49                          0.0748843               2.0377
        50                          0.0971304               2.6431
        51                          0.1074380               2.9235
        52                          0.1138319               3.0975
        53                          0.1241685               3.3788
       ...                                ...                  ...
        83                          0.6684480              18.1894
      -------------------------------------------------------------
                  HL-Gap            0.0814061 Eh            2.2152 eV

     #   Z          covCN         q      C6AA      α(0)
     1   6 C        3.751    -0.100    22.481     6.762
     2   6 C        3.803    -0.048    21.441     6.592
     3   6 C        3.859    -0.016    20.814     6.488
     4   6 C        2.910    -0.043    29.056     8.839
     5   6 C        2.903    -0.033    28.829     8.804
     6   6 C        2.915    -0.045    29.120     8.849
     7   6 C        2.909    -0.039    28.972     8.826
     8   6 C        2.960    -0.003    28.106     8.696
     9   6 C        3.860    -0.023    20.937     6.507
    10   6 C        3.754    -0.099    22.455     6.757
    11   6 C        2.970     0.014    27.708     8.634
    12   6 C        2.923    -0.040    29.003     8.832
    13   6 C        2.920    -0.032    28.801     8.801
    14   6 C        2.920    -0.034    28.850     8.808
    15   6 C        2.919    -0.030    28.757     8.794
    16   6 C        2.927    -0.038    28.956     8.825
    17   1 H        0.925     0.034     2.526     2.486
    18   1 H        0.925     0.034     2.533     2.489
    19   1 H        0.925     0.038     2.482     2.463
    20   1 H        0.924     0.031     2.574     2.509
    21   1 H        0.925     0.038     2.470     2.458
    22   1 H        0.923     0.048     2.349     2.397
    23   1 H        0.926     0.026     2.649     2.545
    24   1 H        0.926     0.024     2.678     2.559
    25   1 H        0.926     0.022     2.696     2.568
    26   1 H        0.925     0.021     2.721     2.580
    27   1 H        0.923     0.042     2.421     2.433
    28   1 H        0.925     0.037     2.495     2.470
    29   1 H        0.925     0.038     2.475     2.460
    30   1 H        0.925     0.035     2.515     2.480
    31   1 H        0.926     0.033     2.538     2.491
    32   1 H        0.926     0.027     2.634     2.538
    33   1 H        0.926     0.027     2.632     2.537
    34   1 H        0.926     0.028     2.619     2.531
    35   1 H        0.926     0.030     2.586     2.515

Wiberg/Mayer (AO) data.
largest (>0.10) Wiberg bond orders for each atom

     #   Z sym  total        # sym  WBO       # sym  WBO       # sym  WBO
 ---------------------------------------------------------------------------
     1   6 C    3.997 --     2 C    1.020    18 H    0.987    19 H    0.986
                            17 H    0.985
     2   6 C    3.990 --     1 C    1.020    20 H    0.980    21 H    0.969
                             3 C    0.924
     3   6 C    3.996 --     4 C    1.036     8 C    1.024    22 H    0.933
                             2 C    0.924
     4   6 C    3.921 --     5 C    1.635     3 C    1.036    23 H    0.970
     5   6 C    3.993 --     4 C    1.635     6 C    1.305    24 H    0.968
     6   6 C    3.875 --     7 C    1.334     5 C    1.305    25 H    0.974
     7   6 C    3.991 --     8 C    1.573     6 C    1.334    26 H    0.964
     8   6 C    3.913 --     7 C    1.573     3 C    1.024     9 C    0.996
     9   6 C    3.994 --    10 C    0.998     8 C    0.996    11 C    0.977
                            27 H    0.950
    10   6 C    3.996 --     9 C    0.998    30 H    0.986    28 H    0.985
                            29 H    0.982
    11   6 C    3.987 --    12 C    1.416    16 C    1.399     9 C    0.977
                            14 C    0.110
    12   6 C    3.990 --    13 C    1.435    11 C    1.416    31 H    0.966
                            15 C    0.108
    13   6 C    3.991 --    14 C    1.446    12 C    1.435    32 H    0.971
                            16 C    0.112
    14   6 C    3.991 --    13 C    1.446    15 C    1.428    33 H    0.972
                            11 C    0.110
    15   6 C    3.992 --    16 C    1.457    14 C    1.428    34 H    0.971
                            12 C    0.108
    16   6 C    3.992 --    15 C    1.457    11 C    1.399    35 H    0.968
                            13 C    0.112
    17   1 H    0.998 --     1 C    0.985
    18   1 H    0.999 --     1 C    0.987
    19   1 H    0.998 --     1 C    0.986
    20   1 H    0.999 --     2 C    0.980
    21   1 H    0.998 --     2 C    0.969
    22   1 H    0.997 --     3 C    0.933
    23   1 H    0.999 --     4 C    0.970
    24   1 H    0.998 --     5 C    0.968
    25   1 H    0.999 --     6 C    0.974
    26   1 H    0.999 --     7 C    0.964
    27   1 H    0.998 --     9 C    0.950
    28   1 H    0.998 --    10 C    0.985
    29   1 H    0.999 --    10 C    0.982
    30   1 H    0.998 --    10 C    0.986
    31   1 H    0.999 --    12 C    0.966
    32   1 H    0.999 --    13 C    0.971
    33   1 H    0.999 --    14 C    0.972
    34   1 H    0.999 --    15 C    0.971
    35   1 H    0.999 --    16 C    0.968
 ---------------------------------------------------------------------------

molecular dipole:
                 x           y           z       tot (Debye)
 q only:        0.214       0.127      -0.259
   full:        0.221       0.134      -0.240       0.897

           -------------------------------------------------
          | TOTAL ENERGY              -43.877345270479 Eh   |
          | GRADIENT NORM               0.000506130158 Eh/α |
          | HOMO-LUMO GAP               2.215173883741 eV   |
           -------------------------------------------------

 * finished run on 2025/09/15 at 14:21:07.619
