   * xtb version 6.7.1 (edcfbbe) compiled by 'conda@c0858423619e' on 2025-09-04

   ID    Z sym.   atoms
    1    6 C      1-16
    2    1 H      17-35

          program call               : /home/paufv/miniforge3/envs/htvs/bin/xtb gfn_opt.xyz --opt normal --parallel 4 --chrg 0 --uhf 0 --gfn2 --input xtb.inp
          :  Hamiltonian                  GFN2-xTB          :
 * total energy  :   -43.8686068 Eh     change       -0.5051035E-09 Eh
 * total energy  :   -43.8763558 Eh     change       -0.7749009E-02 Eh
 * total energy  :   -43.8783176 Eh     change       -0.1961751E-02 Eh
 * total energy  :   -43.8787227 Eh     change       -0.4051443E-03 Eh
 * total energy  :   -43.8789544 Eh     change       -0.2317305E-03 Eh
 * total energy  :   -43.8790635 Eh     change       -0.1090511E-03 Eh
 * total energy  :   -43.8791605 Eh     change       -0.9700963E-04 Eh
 * total energy  :   -43.8792446 Eh     change       -0.8412794E-04 Eh
 * total energy  :   -43.8793227 Eh     change       -0.7805677E-04 Eh
 * total energy  :   -43.8793522 Eh     change       -0.2956505E-04 Eh
 * total energy  :   -43.8793890 Eh     change       -0.3671943E-04 Eh
 * total energy  :   -43.8793970 Eh     change       -0.7997542E-05 Eh
 * total energy  :   -43.8794073 Eh     change       -0.1031246E-04 Eh
 * total energy  :   -43.8794202 Eh     change       -0.1292232E-04 Eh
 * total energy  :   -43.8794281 Eh     change       -0.7873468E-05 Eh
 * total energy  :   -43.8794328 Eh     change       -0.4773799E-05 Eh
   *** GEOMETRY OPTIMIZATION CONVERGED AFTER 16 ITERATIONS ***

 final structure:
================
35
 xtb: 6.7.1 (edcfbbe)
C            1.34593544613807        1.76968519083512        0.52725524261454
C            1.12753695561542        1.15644900165168       -0.84754424107633
C            1.49807301075648       -0.35529584531838       -0.88630952208940
C            2.95328919488581       -0.50027044458417       -0.58424134862708
C            3.42065483683558       -1.15185629563513        0.50623251756685
C            2.53921403731093       -1.79475248393669        1.38861759148717
C            1.17188769741066       -1.82279371580008        1.09430398383095
C            0.63313666043834       -1.18850018309469        0.01303955621834
C           -0.83755222902350       -1.35796892804489       -0.29940972771836
C           -1.06929732817001       -1.76414999589654       -1.75652999882830
C           -1.63207817309932       -0.13815623589734        0.13334643790615
C           -2.37135696103823        0.64799210135501       -0.74031936898765
C           -3.07370637518334        1.74954298966846       -0.27903682917247
C           -3.05290688871542        2.08285098537997        1.06264507762423
C           -2.32936582265832        1.29938369104631        1.94587494139410
C           -1.62990460502550        0.20079316338038        1.48368361855769
H            2.38679957886898        1.67512452111664        0.82815103542870
H            0.72718046858951        1.27078010870280        1.26843777245145
H            1.08028579109079        2.82464813616956        0.51348566212862
H            0.08502336162427        1.27957507296461       -1.13997100296842
H            1.74968561959699        1.67584442013702       -1.58037497583406
H            1.33222267742802       -0.66663356062445       -1.92992081531777
H            3.63078943063893       -0.01102422633777       -1.26936929251190
H            4.48392496450877       -1.19671981953706        0.69779506330958
H            2.91579558552319       -2.30453079207539        2.26083051341109
H            0.52571461629348       -2.40413090968662        1.74037405356988
H           -1.19622764498140       -2.18755899040720        0.32481688003695
H           -2.11674776533990       -2.01338613504102       -1.91281488558122
H           -0.47027316253425       -2.64349909278547       -1.98553634032649
H           -0.79346714332232       -0.97218824610042       -2.44765843435785
H           -2.41090828790859        0.41310291735628       -1.79261092508136
H           -3.64101844785611        2.34916611623839       -0.97656107191010
H           -3.60054718393561        2.94258222168204        1.41923767613958
H           -2.31160278698988        1.54442393083937        2.99790795972389
H           -1.07018912776853       -0.40852866771843        2.17927319698977

          :  Hamiltonian                  GFN2-xTB          :
         :: total energy             -43.879432848875 Eh    ::
         :: gradient norm              0.000394817090 Eh/a0 ::
         :: HOMO-LUMO gap              2.191104265928 eV    ::
         :: SCC energy               -44.663163667838 Eh    ::
         :: -> dispersion             -0.038097915720 Eh    ::
         :: repulsion energy           0.783730818963 Eh    ::

    * Orbital Energies and Occupations

         #    Occupation            Energy/Eh            Energy/eV
      -------------------------------------------------------------
         1        2.0000           -0.6426557             -17.4876
       ...           ...                  ...                  ...
        30        2.0000           -0.4518287             -12.2949
        31        2.0000           -0.4433900             -12.0653
        32        2.0000           -0.4415603             -12.0155
        33        2.0000           -0.4333552             -11.7922
        34        2.0000           -0.4290943             -11.6762
        35        2.0000           -0.4229110             -11.5080
        36        2.0000           -0.4183214             -11.3831
        37        2.0000           -0.4113861             -11.1944
        38        2.0000           -0.4096481             -11.1471
        39        2.0000           -0.3985341             -10.8447
        40        2.0000           -0.3922527             -10.6737
        41        2.0000           -0.3870578             -10.5324
        42        1.0000           -0.2997843              -8.1575 (HOMO)
        43                         -0.2192627              -5.9664 (LUMO)
        44                         -0.2186639              -5.9501
        45                         -0.2040206              -5.5517
        46                         -0.1221561              -3.3240
        47                         -0.0897285              -2.4416
        48                          0.0741337               2.0173
        49                          0.0745418               2.0284
        50                          0.0921102               2.5064
        51                          0.1075895               2.9277
        52                          0.1143073               3.1105
        53                          0.1220146               3.3202
       ...                                ...                  ...
        83                          0.6682448              18.1839
      -------------------------------------------------------------
                  HL-Gap            0.0805216 Eh            2.1911 eV

     #   Z          covCN         q      C6AA      α(0)
     1   6 C        3.751    -0.100    22.470     6.760
     2   6 C        3.803    -0.049    21.453     6.594
     3   6 C        3.860    -0.015    20.800     6.486
     4   6 C        2.911    -0.041    29.023     8.834
     5   6 C        2.903    -0.032    28.804     8.800
     6   6 C        2.915    -0.045    29.110     8.847
     7   6 C        2.908    -0.038    28.941     8.821
     8   6 C        2.958    -0.000    28.035     8.685
     9   6 C        3.860    -0.022    20.930     6.506
    10   6 C        3.753    -0.099    22.457     6.757
    11   6 C        2.969     0.016    27.655     8.626
    12   6 C        2.924    -0.039    28.967     8.826
    13   6 C        2.920    -0.032    28.793     8.799
    14   6 C        2.920    -0.033    28.833     8.805
    15   6 C        2.919    -0.030    28.751     8.793
    16   6 C        2.927    -0.037    28.913     8.818
    17   1 H        0.925     0.036     2.501     2.473
    18   1 H        0.925     0.037     2.487     2.466
    19   1 H        0.925     0.031     2.577     2.511
    20   1 H        0.925     0.037     2.492     2.469
    21   1 H        0.924     0.030     2.585     2.514
    22   1 H        0.923     0.048     2.341     2.393
    23   1 H        0.926     0.023     2.694     2.567
    24   1 H        0.925     0.023     2.683     2.561
    25   1 H        0.926     0.022     2.698     2.569
    26   1 H        0.925     0.020     2.734     2.586
    27   1 H        0.923     0.041     2.435     2.440
    28   1 H        0.925     0.037     2.494     2.470
    29   1 H        0.925     0.034     2.525     2.485
    30   1 H        0.925     0.037     2.486     2.466
    31   1 H        0.926     0.032     2.556     2.500
    32   1 H        0.926     0.026     2.638     2.540
    33   1 H        0.926     0.027     2.632     2.537
    34   1 H        0.926     0.027     2.625     2.534
    35   1 H        0.926     0.028     2.619     2.531

Wiberg/Mayer (AO) data.
largest (>0.10) Wiberg bond orders for each atom

     #   Z sym  total        # sym  WBO       # sym  WBO       # sym  WBO
 ---------------------------------------------------------------------------
     1   6 C    3.997 --     2 C    1.023    19 H    0.986    17 H    0.986
                            18 H    0.982
     2   6 C    3.992 --     1 C    1.023    21 H    0.977    20 H    0.970
                             3 C    0.932
     3   6 C    3.996 --     4 C    1.037     8 C    1.026     2 C    0.932
                            22 H    0.923
     4   6 C    3.922 --     5 C    1.634     3 C    1.037    23 H    0.971
     5   6 C    3.993 --     4 C    1.634     6 C    1.305    24 H    0.968
     6   6 C    3.876 --     7 C    1.334     5 C    1.305    25 H    0.974
     7   6 C    3.991 --     8 C    1.573     6 C    1.334    26 H    0.964
     8   6 C    3.914 --     7 C    1.573     3 C    1.026     9 C    0.994
     9   6 C    3.994 --    10 C    0.998     8 C    0.994    11 C    0.977
                            27 H    0.952
    10   6 C    3.996 --     9 C    0.998    29 H    0.986    28 H    0.985
                            30 H    0.981
    11   6 C    3.987 --    12 C    1.416    16 C    1.401     9 C    0.977
                            14 C    0.109
    12   6 C    3.990 --    13 C    1.435    11 C    1.416    31 H    0.966
                            15 C    0.108
    13   6 C    3.991 --    14 C    1.445    12 C    1.435    32 H    0.971
                            16 C    0.111
    14   6 C    3.991 --    13 C    1.445    15 C    1.431    33 H    0.972
                            11 C    0.109
    15   6 C    3.992 --    16 C    1.453    14 C    1.431    34 H    0.971
                            12 C    0.108
    16   6 C    3.992 --    15 C    1.453    11 C    1.401    35 H    0.968
                            13 C    0.111
    17   1 H    0.999 --     1 C    0.986
    18   1 H    0.999 --     1 C    0.982
    19   1 H    0.999 --     1 C    0.986
    20   1 H    0.998 --     2 C    0.970
    21   1 H    0.999 --     2 C    0.977
    22   1 H    0.996 --     3 C    0.923
    23   1 H    0.999 --     4 C    0.971
    24   1 H    0.998 --     5 C    0.968
    25   1 H    0.999 --     6 C    0.974
    26   1 H    0.999 --     7 C    0.964
    27   1 H    0.998 --     9 C    0.952
    28   1 H    0.998 --    10 C    0.985
    29   1 H    0.998 --    10 C    0.986
    30   1 H    0.999 --    10 C    0.981
    31   1 H    0.999 --    12 C    0.966
    32   1 H    0.999 --    13 C    0.971
    33   1 H    0.999 --    14 C    0.972
    34   1 H    0.999 --    15 C    0.971
    35   1 H    0.999 --    16 C    0.968
 ---------------------------------------------------------------------------

molecular dipole:
                 x           y           z       tot (Debye)
 q only:       -0.166       0.022      -0.298
   full:       -0.177       0.030      -0.305       0.899

           -------------------------------------------------
          | TOTAL ENERGY              -43.879432848875 Eh   |
          | GRADIENT NORM               0.000394817090 Eh/α |
          | HOMO-LUMO GAP               2.191104265928 eV   |
           -------------------------------------------------

 * finished run on 2025/09/15 at 14:21:07.115
