   * xtb version 6.7.1 (edcfbbe) compiled by 'conda@c0858423619e' on 2025-09-04

   ID    Z sym.   atoms
    1    6 C      1-16
    2    1 H      17-35

          program call               : /home/paufv/miniforge3/envs/htvs/bin/xtb gfn_opt.xyz --opt normal --parallel 4 --chrg 0 --uhf 0 --gfn2 --input xtb.inp
          :  Hamiltonian                  GFN2-xTB          :
 * total energy  :   -43.8704768 Eh     change       -0.2125446E-09 Eh
 * total energy  :   -43.8784476 Eh     change       -0.7970760E-02 Eh
 * total energy  :   -43.8803956 Eh     change       -0.1948052E-02 Eh
 * total energy  :   -43.8807946 Eh     change       -0.3989431E-03 Eh
 * total energy  :   -43.8809884 Eh     change       -0.1937833E-03 Eh
 * total energy  :   -43.8810439 Eh     change       -0.5557395E-04 Eh
 * total energy  :   -43.8810952 Eh     change       -0.5122672E-04 Eh
 * total energy  :   -43.8811269 Eh     change       -0.3168517E-04 Eh
 * total energy  :   -43.8811441 Eh     change       -0.1725949E-04 Eh
 * total energy  :   -43.8811709 Eh     change       -0.2674716E-04 Eh
 * total energy  :   -43.8811895 Eh     change       -0.1867473E-04 Eh
 * total energy  :   -43.8812032 Eh     change       -0.1368975E-04 Eh
 * total energy  :   -43.8812127 Eh     change       -0.9429061E-05 Eh
 * total energy  :   -43.8812186 Eh     change       -0.5957430E-05 Eh
 * total energy  :   -43.8812244 Eh     change       -0.5832882E-05 Eh
 * total energy  :   -43.8812308 Eh     change       -0.6391757E-05 Eh
 * total energy  :   -43.8812338 Eh     change       -0.2977328E-05 Eh
   *** GEOMETRY OPTIMIZATION CONVERGED AFTER 17 ITERATIONS ***

 final structure:
================
35
 xtb: 6.7.1 (edcfbbe)
C           -3.12690648806685       -1.53017194253522       -1.10015894514180
C           -2.36738547845020       -1.73167762945081        0.21507582191112
C           -1.85307358228774       -0.44807556112739        0.80094662665383
C           -2.71134779446311        0.47970045132031        1.31399564432419
C           -2.26303253529145        1.64272846218793        1.94753737246207
C           -0.88600711487453        1.83584848130376        2.13915451701019
C            0.01798546108292        0.95226878457757        1.65100154405191
C           -0.37601393277607       -0.21523875672994        0.81625695775220
C            0.17160783025899       -0.04052703239739       -0.65692762675606
C           -0.40818083048746        1.21398306238515       -1.30015376921780
C            1.67460371080695       -0.08162924627020       -0.63524744051026
C            2.31317033121493       -1.31878648645005       -0.64117234802715
C            3.69090723990067       -1.41264905131602       -0.58418548548226
C            4.46110240894534       -0.26397273429786       -0.51851933588007
C            3.83951080888758        0.97230911562166       -0.51158512301365
C            2.45960310187811        1.06342882092752       -0.56731875995533
H           -2.47415692114332       -1.12273871543051       -1.86828295231467
H           -3.52192544655091       -2.48010079760514       -1.45429880692736
H           -3.95749953590312       -0.84316777541833       -0.95894033480411
H           -3.04950552498714       -2.19819451508480        0.93287105509768
H           -1.53936564683470       -2.42433404053708        0.04948425551912
H           -3.77675102603077        0.29630012845043        1.26246104501775
H           -2.97161230692918        2.35821315614359        2.33289893167964
H           -0.55070353293744        2.69345229294975        2.70626611826276
H            1.07599004381081        1.08802568594978        1.81965024171411
H            0.12841146097387       -1.11924059023811        1.19448723561077
H           -0.17427297362544       -0.91157831628957       -1.22280715224159
H            0.02781204451318        1.36700865823241       -2.28556293805444
H           -0.21953909063750        2.09252406768111       -0.68932606060884
H           -1.48570526753369        1.11241160353580       -1.40615914755832
H            1.71979479493573       -2.22187778747354       -0.69550874406848
H            4.16524244316356       -2.38347701008341       -0.59253876830808
H            5.53804194247406       -0.33265889382980       -0.47420795664976
H            4.43275864585846        1.87412741487034       -0.46067513982223
H            1.99644276110289        2.03776669642984       -0.55831053172403

          :  Hamiltonian                  GFN2-xTB          :
         :: total energy             -43.881233810636 Eh    ::
         :: gradient norm              0.000213391034 Eh/a0 ::
         :: HOMO-LUMO gap              2.234068014755 eV    ::
         :: SCC energy               -44.665980252999 Eh    ::
         :: -> dispersion             -0.036451090013 Eh    ::
         :: repulsion energy           0.784746442363 Eh    ::

    * Orbital Energies and Occupations

         #    Occupation            Energy/Eh            Energy/eV
      -------------------------------------------------------------
         1        2.0000           -0.6424060             -17.4808
       ...           ...                  ...                  ...
        30        2.0000           -0.4498319             -12.2406
        31        2.0000           -0.4490862             -12.2203
        32        2.0000           -0.4411596             -12.0046
        33        2.0000           -0.4388450             -11.9416
        34        2.0000           -0.4310245             -11.7288
        35        2.0000           -0.4226670             -11.5014
        36        2.0000           -0.4171424             -11.3510
        37        2.0000           -0.4120818             -11.2133
        38        2.0000           -0.4052303             -11.0269
        39        2.0000           -0.3990173             -10.8578
        40        2.0000           -0.3917577             -10.6603
        41        2.0000           -0.3898452             -10.6082
        42        1.0000           -0.3004154              -8.1747 (HOMO)
        43                         -0.2183149              -5.9407 (LUMO)
        44                         -0.2172692              -5.9122
        45                         -0.2057238              -5.5980
        46                         -0.1239491              -3.3728
        47                         -0.0886924              -2.4134
        48                          0.0757178               2.0604
        49                          0.0781243               2.1259
        50                          0.0908464               2.4721
        51                          0.1086539               2.9566
        52                          0.1202604               3.2725
        53                          0.1251301               3.4050
       ...                                ...                  ...
        83                          0.6689085              18.2019
      -------------------------------------------------------------
                  HL-Gap            0.0821005 Eh            2.2341 eV

     #   Z          covCN         q      C6AA      α(0)
     1   6 C        3.751    -0.097    22.415     6.752
     2   6 C        3.805    -0.056    21.572     6.612
     3   6 C        2.957    -0.000    28.031     8.684
     4   6 C        2.908    -0.038    28.949     8.822
     5   6 C        2.915    -0.044    29.100     8.846
     6   6 C        2.903    -0.032    28.805     8.800
     7   6 C        2.908    -0.041    29.016     8.833
     8   6 C        3.861    -0.014    20.788     6.484
     9   6 C        3.855    -0.015    20.812     6.488
    10   6 C        3.753    -0.100    22.468     6.759
    11   6 C        2.970     0.010    27.797     8.648
    12   6 C        2.927    -0.039    28.971     8.827
    13   6 C        2.918    -0.031    28.774     8.796
    14   6 C        2.920    -0.034    28.841     8.807
    15   6 C        2.919    -0.031    28.780     8.797
    16   6 C        2.924    -0.036    28.896     8.815
    17   1 H        0.925     0.035     2.515     2.480
    18   1 H        0.925     0.034     2.533     2.489
    19   1 H        0.925     0.036     2.500     2.473
    20   1 H        0.924     0.038     2.470     2.458
    21   1 H        0.924     0.031     2.579     2.511
    22   1 H        0.925     0.024     2.668     2.554
    23   1 H        0.926     0.022     2.696     2.567
    24   1 H        0.925     0.023     2.686     2.563
    25   1 H        0.926     0.025     2.665     2.553
    26   1 H        0.923     0.043     2.409     2.427
    27   1 H        0.924     0.039     2.461     2.453
    28   1 H        0.925     0.034     2.527     2.486
    29   1 H        0.925     0.039     2.458     2.452
    30   1 H        0.925     0.038     2.474     2.460
    31   1 H        0.925     0.022     2.697     2.568
    32   1 H        0.926     0.027     2.633     2.537
    33   1 H        0.926     0.027     2.635     2.538
    34   1 H        0.926     0.027     2.630     2.536
    35   1 H        0.926     0.034     2.525     2.485

Wiberg/Mayer (AO) data.
largest (>0.10) Wiberg bond orders for each atom

     #   Z sym  total        # sym  WBO       # sym  WBO       # sym  WBO
 ---------------------------------------------------------------------------
     1   6 C    3.996 --     2 C    0.999    19 H    0.987    18 H    0.987
                            17 H    0.986
     2   6 C    3.997 --     3 C    1.021     1 C    0.999    21 H    0.976
                            20 H    0.963
     3   6 C    3.914 --     4 C    1.568     8 C    1.031     2 C    1.021
     4   6 C    3.991 --     3 C    1.568     5 C    1.340    22 H    0.966
     5   6 C    3.878 --     4 C    1.340     6 C    1.306    23 H    0.974
     6   6 C    3.993 --     7 C    1.631     5 C    1.306    24 H    0.968
     7   6 C    3.927 --     6 C    1.631     8 C    1.045    25 H    0.969
     8   6 C    3.994 --     7 C    1.045     3 C    1.031    26 H    0.929
                             9 C    0.883
     9   6 C    3.988 --    10 C    1.011    11 C    1.009    27 H    0.959
                             8 C    0.883
    10   6 C    3.996 --     9 C    1.011    28 H    0.985    30 H    0.983
                            29 H    0.982
    11   6 C    3.988 --    16 C    1.408    12 C    1.402     9 C    1.009
                            14 C    0.108
    12   6 C    3.990 --    13 C    1.452    11 C    1.402    31 H    0.969
                            15 C    0.110
    13   6 C    3.992 --    12 C    1.452    14 C    1.433    32 H    0.971
                            16 C    0.109
    14   6 C    3.988 --    15 C    1.439    13 C    1.433    33 H    0.972
                            11 C    0.108
    15   6 C    3.992 --    16 C    1.444    14 C    1.439    34 H    0.971
                            12 C    0.110
    16   6 C    3.990 --    15 C    1.444    11 C    1.408    35 H    0.967
                            13 C    0.109
    17   1 H    0.999 --     1 C    0.986
    18   1 H    0.998 --     1 C    0.987
    19   1 H    0.999 --     1 C    0.987
    20   1 H    0.998 --     2 C    0.963
    21   1 H    0.999 --     2 C    0.976
    22   1 H    0.999 --     4 C    0.966
    23   1 H    0.999 --     5 C    0.974
    24   1 H    0.999 --     6 C    0.968
    25   1 H    0.999 --     7 C    0.969
    26   1 H    0.997 --     8 C    0.929
    27   1 H    0.998 --     9 C    0.959
    28   1 H    0.999 --    10 C    0.985
    29   1 H    0.998 --    10 C    0.982
    30   1 H    0.998 --    10 C    0.983
    31   1 H    0.999 --    12 C    0.969
    32   1 H    0.999 --    13 C    0.971
    33   1 H    0.999 --    14 C    0.972
    34   1 H    0.999 --    15 C    0.971
    35   1 H    0.999 --    16 C    0.967
 ---------------------------------------------------------------------------

molecular dipole:
                 x           y           z       tot (Debye)
 q only:       -0.142      -0.198      -0.211
   full:       -0.117      -0.251      -0.207       0.880

           -------------------------------------------------
          | TOTAL ENERGY              -43.881233810636 Eh   |
          | GRADIENT NORM               0.000213391034 Eh/α |
          | HOMO-LUMO GAP               2.234068014755 eV   |
           -------------------------------------------------

 * finished run on 2025/09/15 at 14:52:49.676
