   * xtb version 6.7.1 (edcfbbe) compiled by 'conda@c0858423619e' on 2025-09-04

   ID    Z sym.   atoms
    1    6 C      1-16
    2    1 H      17-35

          program call               : /home/paufv/miniforge3/envs/htvs/bin/xtb gfn_opt.xyz --opt normal --parallel 4 --chrg 0 --uhf 0 --gfn2 --input xtb.inp
          :  Hamiltonian                  GFN2-xTB          :
 * total energy  :   -43.8691398 Eh     change       -0.2026255E-09 Eh
 * total energy  :   -43.8771114 Eh     change       -0.7971574E-02 Eh
 * total energy  :   -43.8790517 Eh     change       -0.1940366E-02 Eh
 * total energy  :   -43.8794621 Eh     change       -0.4103737E-03 Eh
 * total energy  :   -43.8796944 Eh     change       -0.2323539E-03 Eh
 * total energy  :   -43.8797956 Eh     change       -0.1011626E-03 Eh
 * total energy  :   -43.8798903 Eh     change       -0.9468472E-04 Eh
 * total energy  :   -43.8799791 Eh     change       -0.8885612E-04 Eh
 * total energy  :   -43.8800659 Eh     change       -0.8671324E-04 Eh
 * total energy  :   -43.8801104 Eh     change       -0.4455563E-04 Eh
 * total energy  :   -43.8819038 Eh     change       -0.3967222E-04 Eh
 * total energy  :   -43.8819620 Eh     change       -0.5814403E-04 Eh
 * total energy  :   -43.8819911 Eh     change       -0.2914362E-04 Eh
 * total energy  :   -43.8820368 Eh     change       -0.4571586E-04 Eh
 * total energy  :   -43.8820627 Eh     change       -0.2582577E-04 Eh
 * total energy  :   -43.8820647 Eh     change       -0.2004148E-05 Eh
 * total energy  :   -43.8820795 Eh     change       -0.1477418E-04 Eh
 * total energy  :   -43.8820904 Eh     change       -0.1097130E-04 Eh
 * total energy  :   -43.8820946 Eh     change       -0.4171473E-05 Eh
   *** GEOMETRY OPTIMIZATION CONVERGED AFTER 45 ITERATIONS ***

 final structure:
================
35
 xtb: 6.7.1 (edcfbbe)
C           -3.79628586707203       -0.77452101044618        0.65627234428624
C           -2.32716981019001       -1.20373154173848        0.75365717979973
C           -1.47048630179197       -0.33936463204130       -0.11932497602813
C           -1.22729127738647       -0.66245233992540       -1.42084524332192
C           -0.57897920955942        0.21875159668756       -2.29299153044534
C           -0.28978887904596        1.52182521100320       -1.86130592411656
C           -0.49552106396502        1.89177789921387       -0.57322319139689
C           -0.89008775126790        0.90647428855089        0.46876843410648
C            0.36562899763951        0.51175137190025        1.35563049074805
C            0.86287760519257        1.70090933712846        2.17171142332650
C            1.41674889437973       -0.10651654271138        0.47855214955390
C            1.44296179591930       -1.48822461649380        0.32050803573080
C            2.35494976048637       -2.09167892331578       -0.52479720949134
C            3.26155149095857       -1.31997010912338       -1.23054130163748
C            3.24890948564935        0.05532977059339       -1.07842644551283
C            2.33347888582668        0.65698193560256       -0.23383036979768
H           -4.42089276635143       -1.41112650685458        1.27888247377341
H           -4.14015805070510       -0.84569063267360       -0.37272994523445
H           -3.91500522331666        0.25522354507006        0.98478852738578
H           -2.01152058010222       -1.13311985586063        1.79796653532803
H           -2.24381693811006       -2.24718762842060        0.44035254873987
H           -1.58385292004410       -1.60839752590140       -1.80653365816907
H           -0.37745553231206       -0.07459179432589       -3.31052417990536
H            0.06788581867565        2.24483381877611       -2.58124782973685
H           -0.32501200905501        2.90988612885363       -0.25720014446200
H           -1.60118049247808        1.36001889755411        1.17233936762328
H            0.01794246386641       -0.25361517214446        2.05792270458439
H            1.73697182781013        1.40881330732087        2.75124043437657
H            1.13824465442195        2.53973619783992        1.53953456505041
H            0.08833134773388        2.03384261656153        2.86077785305347
H            0.73701179960893       -2.09864108144342        0.86635770508363
H            2.35709159189758       -3.16677094177433       -0.63462157364426
H            3.97374296426018       -1.78788248144245       -1.89445145483404
H            3.95379801077480        0.66549506440053       -1.62496944533158
H            2.33647727765094        1.73163234958554       -0.13759834949962

          :  Hamiltonian                  GFN2-xTB          :
         :: total energy             -43.882094598619 Eh    ::
         :: gradient norm              0.000878568058 Eh/a0 ::
         :: HOMO-LUMO gap              2.347911414292 eV    ::
         :: SCC energy               -44.668285077806 Eh    ::
         :: -> dispersion             -0.038718739947 Eh    ::
         :: repulsion energy           0.786190479187 Eh    ::

    * Orbital Energies and Occupations

         #    Occupation            Energy/Eh            Energy/eV
      -------------------------------------------------------------
         1        2.0000           -0.6398088             -17.4101
       ...           ...                  ...                  ...
        30        2.0000           -0.4531145             -12.3299
        31        2.0000           -0.4469221             -12.1614
        32        2.0000           -0.4405002             -11.9866
        33        2.0000           -0.4371763             -11.8962
        34        2.0000           -0.4317369             -11.7482
        35        2.0000           -0.4158153             -11.3149
        36        2.0000           -0.4124824             -11.2242
        37        2.0000           -0.4100074             -11.1569
        38        2.0000           -0.4065947             -11.0640
        39        2.0000           -0.3973684             -10.8129
        40        2.0000           -0.3883811             -10.5684
        41        2.0000           -0.3852226             -10.4824
        42        1.0000           -0.2996642              -8.1543 (HOMO)
        43                         -0.2133800              -5.8064 (LUMO)
        44                         -0.2128862              -5.7929
        45                         -0.2038232              -5.5463
        46                         -0.1231120              -3.3500
        47                         -0.0847070              -2.3050
        48                          0.0688138               1.8725
        49                          0.0854340               2.3248
        50                          0.1041108               2.8330
        51                          0.1102112               2.9990
        52                          0.1135261               3.0892
        53                          0.1212858               3.3004
       ...                                ...                  ...
        83                          0.6745598              18.3557
      -------------------------------------------------------------
                  HL-Gap            0.0862842 Eh            2.3479 eV

     #   Z          covCN         q      C6AA      α(0)
     1   6 C        3.753    -0.098    22.421     6.752
     2   6 C        3.805    -0.054    21.546     6.608
     3   6 C        2.962     0.000    28.023     8.683
     4   6 C        2.909    -0.039    28.960     8.824
     5   6 C        2.916    -0.042    29.054     8.839
     6   6 C        2.904    -0.032    28.788     8.798
     7   6 C        2.909    -0.042    29.035     8.836
     8   6 C        3.861    -0.015    20.809     6.487
     9   6 C        3.855    -0.015    20.800     6.486
    10   6 C        3.753    -0.101    22.479     6.761
    11   6 C        2.971     0.011    27.761     8.643
    12   6 C        2.927    -0.037    28.915     8.818
    13   6 C        2.919    -0.031    28.773     8.796
    14   6 C        2.920    -0.033    28.831     8.805
    15   6 C        2.920    -0.031    28.783     8.798
    16   6 C        2.925    -0.034    28.844     8.807
    17   1 H        0.925     0.036     2.504     2.475
    18   1 H        0.925     0.037     2.490     2.468
    19   1 H        0.925     0.034     2.530     2.487
    20   1 H        0.924     0.032     2.556     2.500
    21   1 H        0.924     0.035     2.518     2.482
    22   1 H        0.925     0.024     2.673     2.557
    23   1 H        0.926     0.022     2.698     2.569
    24   1 H        0.926     0.024     2.679     2.560
    25   1 H        0.926     0.023     2.695     2.567
    26   1 H        0.923     0.044     2.396     2.421
    27   1 H        0.924     0.034     2.530     2.488
    28   1 H        0.925     0.037     2.490     2.468
    29   1 H        0.925     0.041     2.435     2.440
    30   1 H        0.925     0.034     2.530     2.487
    31   1 H        0.926     0.024     2.675     2.558
    32   1 H        0.926     0.027     2.633     2.538
    33   1 H        0.926     0.027     2.633     2.537
    34   1 H        0.926     0.027     2.632     2.537
    35   1 H        0.926     0.031     2.568     2.506

Wiberg/Mayer (AO) data.
largest (>0.10) Wiberg bond orders for each atom

     #   Z sym  total        # sym  WBO       # sym  WBO       # sym  WBO
 ---------------------------------------------------------------------------
     1   6 C    3.995 --     2 C    0.992    18 H    0.989    19 H    0.988
                            17 H    0.986
     2   6 C    3.997 --     3 C    1.024     1 C    0.992    21 H    0.973
                            20 H    0.969
     3   6 C    3.918 --     4 C    1.571     8 C    1.030     2 C    1.024
     4   6 C    3.992 --     3 C    1.571     5 C    1.335    22 H    0.966
     5   6 C    3.881 --     4 C    1.335     6 C    1.309    23 H    0.974
     6   6 C    3.993 --     7 C    1.627     5 C    1.309    24 H    0.968
     7   6 C    3.925 --     6 C    1.627     8 C    1.045    25 H    0.970
     8   6 C    3.995 --     7 C    1.045     3 C    1.030    26 H    0.940
                             9 C    0.874
     9   6 C    3.987 --    11 C    1.011    10 C    1.007    27 H    0.961
                             8 C    0.874
    10   6 C    3.996 --     9 C    1.007    30 H    0.986    28 H    0.984
                            29 H    0.982
    11   6 C    3.988 --    16 C    1.408    12 C    1.405     9 C    1.011
                            14 C    0.109
    12   6 C    3.992 --    13 C    1.449    11 C    1.405    31 H    0.969
                            15 C    0.110
    13   6 C    3.993 --    12 C    1.449    14 C    1.435    32 H    0.971
                            16 C    0.109
    14   6 C    3.992 --    15 C    1.438    13 C    1.435    33 H    0.972
                            11 C    0.109
    15   6 C    3.993 --    16 C    1.445    14 C    1.438    34 H    0.971
                            12 C    0.110
    16   6 C    3.992 --    15 C    1.445    11 C    1.408    35 H    0.966
                            13 C    0.109
    17   1 H    0.997 --     1 C    0.986
    18   1 H    0.999 --     1 C    0.989
    19   1 H    0.999 --     1 C    0.988
    20   1 H    0.999 --     2 C    0.969
    21   1 H    0.998 --     2 C    0.973
    22   1 H    0.999 --     4 C    0.966
    23   1 H    0.999 --     5 C    0.974
    24   1 H    0.999 --     6 C    0.968
    25   1 H    0.999 --     7 C    0.970
    26   1 H    0.997 --     8 C    0.940
    27   1 H    0.999 --     9 C    0.961
    28   1 H    0.997 --    10 C    0.984
    29   1 H    0.998 --    10 C    0.982
    30   1 H    0.998 --    10 C    0.986
    31   1 H    0.999 --    12 C    0.969
    32   1 H    0.999 --    13 C    0.971
    33   1 H    0.999 --    14 C    0.972
    34   1 H    0.999 --    15 C    0.971
    35   1 H    0.999 --    16 C    0.966
 ---------------------------------------------------------------------------

molecular dipole:
                 x           y           z       tot (Debye)
 q only:       -0.208       0.061       0.418
   full:       -0.239       0.054       0.423       1.242

           -------------------------------------------------
          | TOTAL ENERGY              -43.882094598619 Eh   |
          | GRADIENT NORM               0.000878568058 Eh/α |
          | HOMO-LUMO GAP               2.347911414292 eV   |
           -------------------------------------------------

 * finished run on 2025/09/15 at 14:52:50.213
