   * xtb version 6.7.1 (edcfbbe) compiled by 'conda@c0858423619e' on 2025-09-04

   ID    Z sym.   atoms
    1    6 C      1-16
    2    1 H      17-35

          program call               : /home/paufv/miniforge3/envs/htvs/bin/xtb gfn_opt.xyz --opt normal --parallel 4 --chrg 0 --uhf 0 --gfn2 --input xtb.inp
          :  Hamiltonian                  GFN2-xTB          :
 * total energy  :   -43.8712354 Eh     change       -0.4556640E-09 Eh
 * total energy  :   -43.8784984 Eh     change       -0.7262998E-02 Eh
 * total energy  :   -43.8805670 Eh     change       -0.2068568E-02 Eh
 * total energy  :   -43.8810294 Eh     change       -0.4623721E-03 Eh
 * total energy  :   -43.8812799 Eh     change       -0.2505055E-03 Eh
 * total energy  :   -43.8813837 Eh     change       -0.1037984E-03 Eh
 * total energy  :   -43.8814664 Eh     change       -0.8277909E-04 Eh
 * total energy  :   -43.8815255 Eh     change       -0.5907486E-04 Eh
 * total energy  :   -43.8815760 Eh     change       -0.5048700E-04 Eh
 * total energy  :   -43.8816027 Eh     change       -0.2669654E-04 Eh
 * total energy  :   -43.8816231 Eh     change       -0.2044477E-04 Eh
 * total energy  :   -43.8816343 Eh     change       -0.1118860E-04 Eh
 * total energy  :   -43.8816421 Eh     change       -0.7781652E-05 Eh
 * total energy  :   -43.8816517 Eh     change       -0.9582242E-05 Eh
 * total energy  :   -43.8816580 Eh     change       -0.6292966E-05 Eh
 * total energy  :   -43.8816621 Eh     change       -0.4082024E-05 Eh
   *** GEOMETRY OPTIMIZATION CONVERGED AFTER 16 ITERATIONS ***

 final structure:
================
35
 xtb: 6.7.1 (edcfbbe)
C           -1.40865320742882        1.88188335925519       -0.41250597568272
C           -1.11321727348779        0.91182311697318       -1.54658697688591
C           -1.51207044956576       -0.55032611780084       -1.19170329286152
C           -2.98126326542208       -0.61219061043685       -0.93979077553789
C           -3.50483573169974       -0.95406229207284        0.26107968920728
C           -2.67287484365127       -1.33089641142741        1.32610101233290
C           -1.29010684817637       -1.42240558759337        1.12835586090467
C           -0.69728584582771       -1.09670775550850       -0.05506277843362
C            0.77699179490259       -1.27654481060790       -0.31369792637155
C            1.37698538679175       -2.48227430547735        0.42219974700810
C            1.57304103617879       -0.03768310408624        0.04678947453021
C            1.42446265688620        0.57507340248396        1.28450924935653
C            2.16853527749388        1.69434226994249        1.61170410006515
C            3.07719254680840        2.21612403169386        0.70702391690910
C            3.23958143573169        1.60801201435309       -0.52520591675040
C            2.49266036346608        0.48951553741705       -0.85057423180737
H           -2.46577419479870        1.86194316721366       -0.15814822063550
H           -1.13849832820981        2.89426679917872       -0.70495950859512
H           -0.83646904481154        1.61726219251418        0.47277454185162
H           -0.04998287435668        0.94587671543615       -1.78679074224321
H           -1.67202677431037        1.21040633270318       -2.43650087378034
H           -1.28511113383339       -1.13893962041999       -2.09823034337398
H           -3.62014723703137       -0.32889805399987       -1.76387016007830
H           -4.57647063633535       -0.95376131967689        0.40598459328857
H           -3.09860658507560       -1.59088544997890        2.28209970398300
H           -0.69146275270771       -1.79939235182899        1.94505562385051
H            0.90441729208352       -1.45079037053032       -1.38958744524653
H            2.38776976941041       -2.66359674950389        0.06215002790546
H            0.77612182894039       -3.37124588606176        0.24351444668401
H            1.43182195802425       -2.30374064221662        1.49254615778872
H            0.71518065205317        0.17802655576209        1.99572622864394
H            2.03737130975517        2.16241599883092        2.57661984751901
H            3.65664201202961        3.09121034160928        0.96178314812647
H            3.94928727016381        2.00542820601373       -1.23646527779115
H            2.62689443600927        0.02093139784914       -1.81633692387960

          :  Hamiltonian                  GFN2-xTB          :
         :: total energy             -43.881662067828 Eh    ::
         :: gradient norm              0.000423121689 Eh/a0 ::
         :: HOMO-LUMO gap              2.173706455403 eV    ::
         :: SCC energy               -44.666346047052 Eh    ::
         :: -> dispersion             -0.037695066775 Eh    ::
         :: repulsion energy           0.784683979224 Eh    ::

    * Orbital Energies and Occupations

         #    Occupation            Energy/Eh            Energy/eV
      -------------------------------------------------------------
         1        2.0000           -0.6433387             -17.5061
       ...           ...                  ...                  ...
        30        2.0000           -0.4522250             -12.3057
        31        2.0000           -0.4452732             -12.1165
        32        2.0000           -0.4384098             -11.9297
        33        2.0000           -0.4340915             -11.8122
        34        2.0000           -0.4294132             -11.6849
        35        2.0000           -0.4232714             -11.5178
        36        2.0000           -0.4195636             -11.4169
        37        2.0000           -0.4109850             -11.1835
        38        2.0000           -0.4076623             -11.0931
        39        2.0000           -0.3999216             -10.8824
        40        2.0000           -0.3926861             -10.6855
        41        2.0000           -0.3887733             -10.5791
        42        1.0000           -0.2997874              -8.1576 (HOMO)
        43                         -0.2199052              -5.9839 (LUMO)
        44                         -0.2195519              -5.9743
        45                         -0.2037519              -5.5444
        46                         -0.1220198              -3.3203
        47                         -0.0904019              -2.4600
        48                          0.0608581               1.6560
        49                          0.0907233               2.4687
        50                          0.0982309               2.6730
        51                          0.1085216               2.9530
        52                          0.1178524               3.2069
        53                          0.1240430               3.3754
       ...                                ...                  ...
        83                          0.6669562              18.1488
      -------------------------------------------------------------
                  HL-Gap            0.0798822 Eh            2.1737 eV

     #   Z          covCN         q      C6AA      α(0)
     1   6 C        3.751    -0.100    22.478     6.761
     2   6 C        3.803    -0.049    21.450     6.594
     3   6 C        3.860    -0.015    20.800     6.486
     4   6 C        2.910    -0.041    29.024     8.834
     5   6 C        2.902    -0.032    28.808     8.801
     6   6 C        2.916    -0.045    29.123     8.849
     7   6 C        2.906    -0.037    28.914     8.817
     8   6 C        2.958    -0.001    28.044     8.686
     9   6 C        3.859    -0.021    20.916     6.504
    10   6 C        3.756    -0.099    22.439     6.754
    11   6 C        2.974     0.017    27.627     8.622
    12   6 C        2.925    -0.035    28.864     8.811
    13   6 C        2.919    -0.031    28.762     8.795
    14   6 C        2.920    -0.033    28.822     8.804
    15   6 C        2.919    -0.031    28.768     8.796
    16   6 C        2.925    -0.038    28.942     8.822
    17   1 H        0.925     0.037     2.488     2.467
    18   1 H        0.925     0.031     2.570     2.507
    19   1 H        0.925     0.037     2.485     2.465
    20   1 H        0.924     0.034     2.534     2.489
    21   1 H        0.924     0.032     2.564     2.504
    22   1 H        0.923     0.040     2.449     2.447
    23   1 H        0.926     0.023     2.695     2.567
    24   1 H        0.925     0.023     2.686     2.563
    25   1 H        0.926     0.022     2.707     2.573
    26   1 H        0.926     0.028     2.620     2.531
    27   1 H        0.924     0.034     2.535     2.490
    28   1 H        0.925     0.035     2.520     2.483
    29   1 H        0.925     0.038     2.473     2.459
    30   1 H        0.925     0.039     2.468     2.457
    31   1 H        0.926     0.033     2.548     2.496
    32   1 H        0.926     0.028     2.621     2.532
    33   1 H        0.926     0.027     2.623     2.533
    34   1 H        0.926     0.028     2.622     2.532
    35   1 H        0.925     0.024     2.669     2.555

Wiberg/Mayer (AO) data.
largest (>0.10) Wiberg bond orders for each atom

     #   Z sym  total        # sym  WBO       # sym  WBO       # sym  WBO
 ---------------------------------------------------------------------------
     1   6 C    3.997 --     2 C    1.023    18 H    0.986    17 H    0.986
                            19 H    0.982
     2   6 C    3.993 --     1 C    1.023    21 H    0.977    20 H    0.973
                             3 C    0.933
     3   6 C    3.995 --     4 C    1.037     8 C    1.023     2 C    0.933
                            22 H    0.926
     4   6 C    3.921 --     5 C    1.633     3 C    1.037    23 H    0.971
     5   6 C    3.993 --     4 C    1.633     6 C    1.306    24 H    0.968
     6   6 C    3.875 --     7 C    1.332     5 C    1.306    25 H    0.974
     7   6 C    3.992 --     8 C    1.575     6 C    1.332    26 H    0.962
     8   6 C    3.915 --     7 C    1.575     3 C    1.023     9 C    1.003
     9   6 C    3.995 --     8 C    1.003    10 C    0.986    11 C    0.974
                            27 H    0.960
    10   6 C    3.996 --    28 H    0.987     9 C    0.986    29 H    0.986
                            30 H    0.984
    11   6 C    3.987 --    16 C    1.412    12 C    1.408     9 C    0.974
                            14 C    0.109
    12   6 C    3.992 --    13 C    1.446    11 C    1.408    31 H    0.966
                            15 C    0.111
    13   6 C    3.992 --    12 C    1.446    14 C    1.436    32 H    0.971
                            16 C    0.110
    14   6 C    3.991 --    15 C    1.440    13 C    1.436    33 H    0.972
                            11 C    0.109
    15   6 C    3.991 --    16 C    1.442    14 C    1.440    34 H    0.971
                            12 C    0.111
    16   6 C    3.990 --    15 C    1.442    11 C    1.412    35 H    0.969
                            13 C    0.110
    17   1 H    0.999 --     1 C    0.986
    18   1 H    0.999 --     1 C    0.986
    19   1 H    0.999 --     1 C    0.982
    20   1 H    0.999 --     2 C    0.973
    21   1 H    0.999 --     2 C    0.977
    22   1 H    0.997 --     3 C    0.926
    23   1 H    0.999 --     4 C    0.971
    24   1 H    0.998 --     5 C    0.968
    25   1 H    0.999 --     6 C    0.974
    26   1 H    0.999 --     7 C    0.962
    27   1 H    0.998 --     9 C    0.960
    28   1 H    0.998 --    10 C    0.987
    29   1 H    0.998 --    10 C    0.986
    30   1 H    0.999 --    10 C    0.984
    31   1 H    0.999 --    12 C    0.966
    32   1 H    0.999 --    13 C    0.971
    33   1 H    0.999 --    14 C    0.972
    34   1 H    0.999 --    15 C    0.971
    35   1 H    0.999 --    16 C    0.969
 ---------------------------------------------------------------------------

molecular dipole:
                 x           y           z       tot (Debye)
 q only:        0.187      -0.037      -0.172
   full:        0.217      -0.022      -0.218       0.785

           -------------------------------------------------
          | TOTAL ENERGY              -43.881662067828 Eh   |
          | GRADIENT NORM               0.000423121689 Eh/α |
          | HOMO-LUMO GAP               2.173706455403 eV   |
           -------------------------------------------------

 * finished run on 2025/09/15 at 14:21:06.322
