   * xtb version 6.7.1 (edcfbbe) compiled by 'conda@c0858423619e' on 2025-09-04

   ID    Z sym.   atoms
    1    6 C      1-16
    2    1 H      17-35

          program call               : /home/paufv/miniforge3/envs/htvs/bin/xtb gfn_opt.xyz --opt normal --parallel 4 --chrg 0 --uhf 0 --gfn2 --input xtb.inp
          :  Hamiltonian                  GFN2-xTB          :
 * total energy  :   -43.8714997 Eh     change       -0.1003947E-08 Eh
 * total energy  :   -43.8785516 Eh     change       -0.7051883E-02 Eh
 * total energy  :   -43.8803030 Eh     change       -0.1751432E-02 Eh
 * total energy  :   -43.8806277 Eh     change       -0.3246932E-03 Eh
 * total energy  :   -43.8807874 Eh     change       -0.1596829E-03 Eh
 * total energy  :   -43.8808391 Eh     change       -0.5163383E-04 Eh
 * total energy  :   -43.8808906 Eh     change       -0.5151412E-04 Eh
 * total energy  :   -43.8809250 Eh     change       -0.3439598E-04 Eh
 * total energy  :   -43.8809709 Eh     change       -0.4592336E-04 Eh
 * total energy  :   -43.8810092 Eh     change       -0.3833551E-04 Eh
 * total energy  :   -43.8810313 Eh     change       -0.2207177E-04 Eh
 * total energy  :   -43.8810430 Eh     change       -0.1168808E-04 Eh
 * total energy  :   -43.8810519 Eh     change       -0.8920051E-05 Eh
 * total energy  :   -43.8810611 Eh     change       -0.9180753E-05 Eh
 * total energy  :   -43.8810695 Eh     change       -0.8407457E-05 Eh
 * total energy  :   -43.8810757 Eh     change       -0.6165723E-05 Eh
 * total energy  :   -43.8810801 Eh     change       -0.4442151E-05 Eh
   *** GEOMETRY OPTIMIZATION CONVERGED AFTER 17 ITERATIONS ***

 final structure:
================
35
 xtb: 6.7.1 (edcfbbe)
C           -3.22791051723028        0.61102366210451       -0.41209078260320
C           -2.05872393455228        0.15484475051258       -1.27292944964993
C           -1.08402941428749       -0.77234472427306       -0.49012015692845
C           -1.76228591667718       -2.07264071370586       -0.21597382592259
C           -2.00968305979477       -2.52355627832248        1.03665692663669
C           -1.58259573429982       -1.79778479766430        2.15806882458979
C           -0.83914012540897       -0.62314866088422        1.98437984601719
C           -0.55482878581256       -0.11391455238587        0.75375936039529
C            0.31776386885960        1.09434501444441        0.52838630537326
C            0.79430615149965        1.78925263100139        1.80677880733992
C            1.52587146419483        0.70042826859479       -0.29627368339743
C            2.30044084370961       -0.38998125960275        0.08183687660257
C            3.41422371921287       -0.75036117747441       -0.65358144783842
C            3.76974161501176       -0.02439619962439       -1.77847048783722
C            3.00540299799254        1.06347036083562       -2.16138301818944
C            1.89042626306551        1.42262718572768       -1.42356363235117
H           -3.91506034957753        1.21952663672374       -0.99630859412887
H           -2.87581164362568        1.19862747490670        0.43272659523039
H           -3.76843122535143       -0.24897171486603       -0.02408898936084
H           -1.51213134901158        1.02035443836521       -1.65027693289342
H           -2.43386458866695       -0.39920813009042       -2.13604236395129
H           -0.24015973577996       -0.95241399236224       -1.17851859795881
H           -2.08467390045231       -2.63406851558914       -1.08101101280496
H           -2.53215148437983       -3.45897201524147        1.18281752387188
H           -1.79423514356212       -2.15824891120327        3.15204517680847
H           -0.47479728114682       -0.12757420801336        2.87206514636942
H           -0.25573068563549        1.83150271253945       -0.04754584545541
H            1.41378169527529        1.12482929319793        2.40392419516568
H            1.39144944913676        2.65990716784641        1.54194728378089
H           -0.05196783945954        2.12193629792006        2.40356267380524
H            2.01679598610002       -0.96375812160121        0.95260565326917
H            4.00622957917224       -1.60169403025651       -0.35033499313326
H            4.63810362546510       -0.30730165881866       -2.35512098526721
H            3.27584633815277        1.63367404391096       -3.03839660673224
H            1.29782911786484        2.27398972334584       -1.72972978885055

          :  Hamiltonian                  GFN2-xTB          :
         :: total energy             -43.881080102448 Eh    ::
         :: gradient norm              0.000326287187 Eh/a0 ::
         :: HOMO-LUMO gap              2.123619355020 eV    ::
         :: SCC energy               -44.665979935946 Eh    ::
         :: -> dispersion             -0.036479906878 Eh    ::
         :: repulsion energy           0.784899833498 Eh    ::

    * Orbital Energies and Occupations

         #    Occupation            Energy/Eh            Energy/eV
      -------------------------------------------------------------
         1        2.0000           -0.6440661             -17.5259
       ...           ...                  ...                  ...
        30        2.0000           -0.4513710             -12.2824
        31        2.0000           -0.4462437             -12.1429
        32        2.0000           -0.4410965             -12.0028
        33        2.0000           -0.4360109             -11.8645
        34        2.0000           -0.4291810             -11.6786
        35        2.0000           -0.4219238             -11.4811
        36        2.0000           -0.4199705             -11.4280
        37        2.0000           -0.4096358             -11.1468
        38        2.0000           -0.4064810             -11.0609
        39        2.0000           -0.4015763             -10.9274
        40        2.0000           -0.3937877             -10.7155
        41        2.0000           -0.3888212             -10.5804
        42        1.0000           -0.2983454              -8.1184 (HOMO)
        43                         -0.2203038              -5.9948 (LUMO)
        44                         -0.2200246              -5.9872
        45                         -0.2021600              -5.5011
        46                         -0.1201670              -3.2699
        47                         -0.0907683              -2.4699
        48                          0.0640128               1.7419
        49                          0.0893710               2.4319
        50                          0.0983564               2.6764
        51                          0.1060814               2.8866
        52                          0.1122535               3.0546
        53                          0.1277782               3.4770
       ...                                ...                  ...
        83                          0.6668095              18.1448
      -------------------------------------------------------------
                  HL-Gap            0.0780416 Eh            2.1236 eV

     #   Z          covCN         q      C6AA      α(0)
     1   6 C        3.751    -0.100    22.465     6.759
     2   6 C        3.803    -0.048    21.432     6.591
     3   6 C        3.860    -0.016    20.819     6.489
     4   6 C        2.910    -0.042    29.044     8.837
     5   6 C        2.902    -0.033    28.815     8.802
     6   6 C        2.916    -0.046    29.140     8.852
     7   6 C        2.905    -0.040    28.990     8.829
     8   6 C        2.960     0.000    28.022     8.683
     9   6 C        3.860    -0.023    20.939     6.508
    10   6 C        3.756    -0.099    22.447     6.755
    11   6 C        2.978     0.013    27.712     8.635
    12   6 C        2.925    -0.035    28.869     8.811
    13   6 C        2.919    -0.031    28.766     8.795
    14   6 C        2.920    -0.033    28.829     8.805
    15   6 C        2.919    -0.031    28.777     8.797
    16   6 C        2.924    -0.038    28.957     8.825
    17   1 H        0.925     0.033     2.548     2.496
    18   1 H        0.925     0.036     2.509     2.477
    19   1 H        0.925     0.038     2.474     2.460
    20   1 H        0.924     0.030     2.588     2.516
    21   1 H        0.924     0.032     2.554     2.499
    22   1 H        0.923     0.043     2.410     2.428
    23   1 H        0.926     0.021     2.714     2.576
    24   1 H        0.925     0.023     2.694     2.567
    25   1 H        0.926     0.021     2.717     2.577
    26   1 H        0.926     0.029     2.594     2.519
    27   1 H        0.924     0.043     2.410     2.428
    28   1 H        0.925     0.039     2.461     2.453
    29   1 H        0.925     0.034     2.525     2.485
    30   1 H        0.925     0.038     2.477     2.461
    31   1 H        0.926     0.032     2.562     2.503
    32   1 H        0.926     0.028     2.609     2.526
    33   1 H        0.926     0.028     2.618     2.530
    34   1 H        0.926     0.028     2.616     2.529
    35   1 H        0.925     0.025     2.660     2.550

Wiberg/Mayer (AO) data.
largest (>0.10) Wiberg bond orders for each atom

     #   Z sym  total        # sym  WBO       # sym  WBO       # sym  WBO
 ---------------------------------------------------------------------------
     1   6 C    3.997 --     2 C    1.022    18 H    0.986    19 H    0.986
                            17 H    0.986
     2   6 C    3.993 --     1 C    1.022    21 H    0.977    20 H    0.974
                             3 C    0.936
     3   6 C    3.996 --     4 C    1.038     8 C    1.020     2 C    0.936
                            22 H    0.924
     4   6 C    3.921 --     5 C    1.631     3 C    1.038    23 H    0.971
     5   6 C    3.993 --     4 C    1.631     6 C    1.309    24 H    0.968
     6   6 C    3.874 --     7 C    1.327     5 C    1.309    25 H    0.974
     7   6 C    3.992 --     8 C    1.581     6 C    1.327    26 H    0.963
     8   6 C    3.917 --     7 C    1.581     3 C    1.020     9 C    1.004
     9   6 C    3.995 --     8 C    1.004    10 C    0.994    11 C    0.977
                            27 H    0.945
    10   6 C    3.996 --     9 C    0.994    29 H    0.986    28 H    0.985
                            30 H    0.984
    11   6 C    3.987 --    16 C    1.418    12 C    1.406     9 C    0.977
                            14 C    0.110
    12   6 C    3.992 --    13 C    1.451    11 C    1.406    31 H    0.968
                            15 C    0.112
    13   6 C    3.992 --    12 C    1.451    14 C    1.434    32 H    0.971
                            16 C    0.110
    14   6 C    3.991 --    15 C    1.443    13 C    1.434    33 H    0.972
                            11 C    0.110
    15   6 C    3.992 --    14 C    1.443    16 C    1.439    34 H    0.971
                            12 C    0.112
    16   6 C    3.991 --    15 C    1.439    11 C    1.418    35 H    0.969
                            13 C    0.110
    17   1 H    0.999 --     1 C    0.986
    18   1 H    0.999 --     1 C    0.986
    19   1 H    0.999 --     1 C    0.986
    20   1 H    0.999 --     2 C    0.974
    21   1 H    0.999 --     2 C    0.977
    22   1 H    0.997 --     3 C    0.924
    23   1 H    0.999 --     4 C    0.971
    24   1 H    0.999 --     5 C    0.968
    25   1 H    0.999 --     6 C    0.974
    26   1 H    0.999 --     7 C    0.963
    27   1 H    0.998 --     9 C    0.945
    28   1 H    0.998 --    10 C    0.985
    29   1 H    0.998 --    10 C    0.986
    30   1 H    0.998 --    10 C    0.984
    31   1 H    0.999 --    12 C    0.968
    32   1 H    0.999 --    13 C    0.971
    33   1 H    0.999 --    14 C    0.972
    34   1 H    0.999 --    15 C    0.971
    35   1 H    0.999 --    16 C    0.969
 ---------------------------------------------------------------------------

molecular dipole:
                 x           y           z       tot (Debye)
 q only:        0.000       0.295      -0.111
   full:        0.039       0.295      -0.175       0.877

           -------------------------------------------------
          | TOTAL ENERGY              -43.881080102448 Eh   |
          | GRADIENT NORM               0.000326287187 Eh/α |
          | HOMO-LUMO GAP               2.123619355020 eV   |
           -------------------------------------------------

 * finished run on 2025/09/15 at 14:52:52.133
