   * xtb version 6.7.1 (edcfbbe) compiled by 'conda@c0858423619e' on 2025-09-04

   ID    Z sym.   atoms
    1    6 C      1-16
    2    1 H      17-35

          program call               : /home/paufv/miniforge3/envs/htvs/bin/xtb gfn_opt.xyz --opt normal --parallel 4 --chrg 0 --uhf 0 --gfn2 --input xtb.inp
          :  Hamiltonian                  GFN2-xTB          :
 * total energy  :   -43.8685666 Eh     change       -0.9970549E-09 Eh
 * total energy  :   -43.8760196 Eh     change       -0.7452983E-02 Eh
 * total energy  :   -43.8777255 Eh     change       -0.1705910E-02 Eh
 * total energy  :   -43.8780306 Eh     change       -0.3050685E-03 Eh
 * total energy  :   -43.8782053 Eh     change       -0.1747778E-03 Eh
 * total energy  :   -43.8782832 Eh     change       -0.7787661E-04 Eh
 * total energy  :   -43.8783791 Eh     change       -0.9586832E-04 Eh
 * total energy  :   -43.8784797 Eh     change       -0.1005901E-03 Eh
 * total energy  :   -43.8785537 Eh     change       -0.7400484E-04 Eh
 * total energy  :   -43.8786129 Eh     change       -0.5923961E-04 Eh
 * total energy  :   -43.8788937 Eh     change       -0.2849345E-04 Eh
 * total energy  :   -43.8789191 Eh     change       -0.2542098E-04 Eh
 * total energy  :   -43.8789374 Eh     change       -0.1823009E-04 Eh
 * total energy  :   -43.8789442 Eh     change       -0.6832158E-05 Eh
 * total energy  :   -43.8789524 Eh     change       -0.8190238E-05 Eh
 * total energy  :   -43.8789605 Eh     change       -0.8075978E-05 Eh
 * total energy  :   -43.8789670 Eh     change       -0.6503226E-05 Eh
 * total energy  :   -43.8789722 Eh     change       -0.5205515E-05 Eh
 * total energy  :   -43.8789767 Eh     change       -0.4484208E-05 Eh
   *** GEOMETRY OPTIMIZATION CONVERGED AFTER 27 ITERATIONS ***

 final structure:
================
35
 xtb: 6.7.1 (edcfbbe)
C            2.73057138730869        1.01264351685813       -0.55049554193462
C            1.52595172736072        1.17385023980516        0.36601740795680
C            0.94021573747755       -0.19665849025215        0.81555188379763
C            1.96400672956670       -0.91658346736739        1.62841212232177
C            2.52854923391112       -2.08328954982717        1.23761986636399
C            2.11699213173884       -2.72067827602946        0.05663903711131
C            1.05618767287557       -2.18276534563269       -0.67871238029738
C            0.44229099377050       -1.01245129693281       -0.33983757766684
C           -0.76579291211350       -0.55576174636328       -1.13178114574984
C           -0.34954666243131        0.17225303552613       -2.41754185736222
C           -1.73833926014452        0.21512953918657       -0.27018131330156
C           -2.02081961786576        1.56329659083721       -0.43602736261753
C           -2.91898007278068        2.20503572997764        0.40186506647987
C           -3.54855715239737        1.51085307783601        1.41820046891808
C           -3.27810894942852        0.16320030025071        1.59157091873273
C           -2.38381240905885       -0.47466573703786        0.75418641773856
H            3.53335755283312        0.49302144380335       -0.03258893019378
H            2.46930489617005        0.43319360622319       -1.43236860526501
H            3.09733037848040        1.98657054024212       -0.86892094118720
H            1.82196194102638        1.72498542473836        1.26150749530963
H            0.74300222605045        1.74742089134936       -0.12996788531973
H            0.08677910512163        0.05850096695080        1.46514771579052
H            2.27388239861351       -0.42953558638427        2.54179392119697
H            3.29483380033645       -2.54517639661756        1.84484628650282
H            2.57938702369141       -3.64349275017193       -0.25471538561940
H            0.69191634755862       -2.73756266218598       -1.53458265551214
H           -1.28956937861812       -1.46730399425402       -1.45300887493345
H            0.20974326879433        1.07868867692240       -2.20787306210505
H            0.28210014312994       -0.48265857272697       -3.01396399865851
H           -1.23005694159599        0.42821383087146       -3.00374774950539
H           -1.55038196324458        2.12986003337910       -1.22484276232191
H           -3.12668210961686        3.25549369772231        0.25629562876598
H           -4.24792658252440        2.01363768374152        2.06977530939729
H           -3.76702210889367       -0.39107359535866        2.37966317193272
H           -2.17296857509843       -1.52649135907487        0.89196531123578

          :  Hamiltonian                  GFN2-xTB          :
         :: total energy             -43.878976664634 Eh    ::
         :: gradient norm              0.000187748758 Eh/a0 ::
         :: HOMO-LUMO gap              2.152285931240 eV    ::
         :: SCC energy               -44.662685331470 Eh    ::
         :: -> dispersion             -0.037227169941 Eh    ::
         :: repulsion energy           0.783708666835 Eh    ::

    * Orbital Energies and Occupations

         #    Occupation            Energy/Eh            Energy/eV
      -------------------------------------------------------------
         1        2.0000           -0.6436470             -17.5145
       ...           ...                  ...                  ...
        30        2.0000           -0.4531253             -12.3302
        31        2.0000           -0.4440672             -12.0837
        32        2.0000           -0.4416260             -12.0173
        33        2.0000           -0.4348378             -11.8325
        34        2.0000           -0.4292636             -11.6809
        35        2.0000           -0.4221515             -11.4873
        36        2.0000           -0.4179309             -11.3725
        37        2.0000           -0.4107338             -11.1766
        38        2.0000           -0.4094122             -11.1407
        39        2.0000           -0.4006571             -10.9024
        40        2.0000           -0.3925002             -10.6805
        41        2.0000           -0.3878133             -10.5529
        42        1.0000           -0.2993282              -8.1451 (HOMO)
        43                         -0.2202331              -5.9928 (LUMO)
        44                         -0.2190868              -5.9617
        45                         -0.2047213              -5.5707
        46                         -0.1223384              -3.3290
        47                         -0.0908694              -2.4727
        48                          0.0742218               2.0197
        49                          0.0754707               2.0537
        50                          0.0928031               2.5253
        51                          0.1088511               2.9620
        52                          0.1181707               3.2156
        53                          0.1218413               3.3155
       ...                                ...                  ...
        83                          0.6689211              18.2023
      -------------------------------------------------------------
                  HL-Gap            0.0790951 Eh            2.1523 eV

     #   Z          covCN         q      C6AA      α(0)
     1   6 C        3.751    -0.100    22.469     6.760
     2   6 C        3.803    -0.047    21.418     6.589
     3   6 C        3.859    -0.014    20.792     6.485
     4   6 C        2.911    -0.041    29.022     8.834
     5   6 C        2.903    -0.032    28.807     8.800
     6   6 C        2.915    -0.045    29.114     8.848
     7   6 C        2.909    -0.039    28.957     8.824
     8   6 C        2.959    -0.000    28.037     8.685
     9   6 C        3.861    -0.022    20.930     6.506
    10   6 C        3.753    -0.098    22.439     6.755
    11   6 C        2.970     0.012    27.736     8.639
    12   6 C        2.923    -0.038    28.952     8.824
    13   6 C        2.920    -0.032    28.796     8.800
    14   6 C        2.920    -0.034    28.842     8.807
    15   6 C        2.918    -0.031    28.775     8.797
    16   6 C        2.928    -0.038    28.956     8.825
    17   1 H        0.925     0.036     2.504     2.475
    18   1 H        0.925     0.039     2.460     2.453
    19   1 H        0.925     0.031     2.571     2.507
    20   1 H        0.924     0.030     2.586     2.515
    21   1 H        0.925     0.036     2.508     2.477
    22   1 H        0.923     0.046     2.373     2.409
    23   1 H        0.926     0.022     2.698     2.569
    24   1 H        0.925     0.023     2.683     2.561
    25   1 H        0.926     0.022     2.699     2.569
    26   1 H        0.925     0.021     2.719     2.579
    27   1 H        0.923     0.042     2.418     2.432
    28   1 H        0.925     0.042     2.429     2.437
    29   1 H        0.925     0.035     2.519     2.482
    30   1 H        0.925     0.036     2.506     2.475
    31   1 H        0.926     0.032     2.558     2.501
    32   1 H        0.926     0.027     2.631     2.537
    33   1 H        0.926     0.027     2.629     2.536
    34   1 H        0.926     0.027     2.623     2.533
    35   1 H        0.925     0.026     2.640     2.541

Wiberg/Mayer (AO) data.
largest (>0.10) Wiberg bond orders for each atom

     #   Z sym  total        # sym  WBO       # sym  WBO       # sym  WBO
 ---------------------------------------------------------------------------
     1   6 C    3.997 --     2 C    1.022    17 H    0.986    19 H    0.986
                            18 H    0.985
     2   6 C    3.992 --     1 C    1.022    20 H    0.977    21 H    0.972
                             3 C    0.931
     3   6 C    3.996 --     4 C    1.038     8 C    1.027     2 C    0.931
                            22 H    0.922
     4   6 C    3.924 --     5 C    1.635     3 C    1.038    23 H    0.971
     5   6 C    3.993 --     4 C    1.635     6 C    1.303    24 H    0.968
     6   6 C    3.878 --     7 C    1.337     5 C    1.303    25 H    0.974
     7   6 C    3.992 --     8 C    1.572     6 C    1.337    26 H    0.965
     8   6 C    3.912 --     7 C    1.572     3 C    1.027     9 C    0.991
     9   6 C    3.994 --    11 C    0.996     8 C    0.991    10 C    0.986
                            27 H    0.948
    10   6 C    3.996 --     9 C    0.986    29 H    0.986    30 H    0.985
                            28 H    0.981
    11   6 C    3.988 --    12 C    1.422    16 C    1.397     9 C    0.996
                            14 C    0.110
    12   6 C    3.991 --    13 C    1.434    11 C    1.422    31 H    0.966
                            15 C    0.108
    13   6 C    3.992 --    14 C    1.448    12 C    1.434    32 H    0.971
                            16 C    0.112
    14   6 C    3.992 --    13 C    1.448    15 C    1.428    33 H    0.972
                            11 C    0.110
    15   6 C    3.992 --    16 C    1.457    14 C    1.428    34 H    0.971
                            12 C    0.108
    16   6 C    3.992 --    15 C    1.457    11 C    1.397    35 H    0.970
                            13 C    0.112
    17   1 H    0.999 --     1 C    0.986
    18   1 H    0.998 --     1 C    0.985
    19   1 H    0.999 --     1 C    0.986
    20   1 H    0.999 --     2 C    0.977
    21   1 H    0.998 --     2 C    0.972
    22   1 H    0.996 --     3 C    0.922
    23   1 H    0.999 --     4 C    0.971
    24   1 H    0.999 --     5 C    0.968
    25   1 H    0.999 --     6 C    0.974
    26   1 H    0.999 --     7 C    0.965
    27   1 H    0.998 --     9 C    0.948
    28   1 H    0.998 --    10 C    0.981
    29   1 H    0.998 --    10 C    0.986
    30   1 H    0.997 --    10 C    0.985
    31   1 H    0.999 --    12 C    0.966
    32   1 H    0.999 --    13 C    0.971
    33   1 H    0.999 --    14 C    0.972
    34   1 H    0.999 --    15 C    0.971
    35   1 H    0.999 --    16 C    0.970
 ---------------------------------------------------------------------------

molecular dipole:
                 x           y           z       tot (Debye)
 q only:       -0.051       0.253      -0.180
   full:       -0.095       0.255      -0.146       0.785

           -------------------------------------------------
          | TOTAL ENERGY              -43.878976664634 Eh   |
          | GRADIENT NORM               0.000187748758 Eh/α |
          | HOMO-LUMO GAP               2.152285931240 eV   |
           -------------------------------------------------

 * finished run on 2025/09/15 at 14:21:06.883
