   * xtb version 6.7.1 (edcfbbe) compiled by 'conda@c0858423619e' on 2025-09-04

   ID    Z sym.   atoms
    1    6 C      1-16
    2    1 H      17-35

          program call               : /home/paufv/miniforge3/envs/htvs/bin/xtb gfn_opt.xyz --opt normal --parallel 4 --chrg 0 --uhf 0 --gfn2 --input xtb.inp
          :  Hamiltonian                  GFN2-xTB          :
 * total energy  :   -43.8670559 Eh     change       -0.1557652E-09 Eh
 * total energy  :   -43.8757004 Eh     change       -0.8644496E-02 Eh
 * total energy  :   -43.8780901 Eh     change       -0.2389732E-02 Eh
 * total energy  :   -43.8785154 Eh     change       -0.4252636E-03 Eh
 * total energy  :   -43.8786912 Eh     change       -0.1758424E-03 Eh
 * total energy  :   -43.8787483 Eh     change       -0.5702174E-04 Eh
 * total energy  :   -43.8787901 Eh     change       -0.4184116E-04 Eh
 * total energy  :   -43.8788274 Eh     change       -0.3733113E-04 Eh
 * total energy  :   -43.8788550 Eh     change       -0.2760042E-04 Eh
 * total energy  :   -43.8788937 Eh     change       -0.3866005E-04 Eh
 * total energy  :   -43.8789148 Eh     change       -0.2112525E-04 Eh
 * total energy  :   -43.8789254 Eh     change       -0.1054742E-04 Eh
 * total energy  :   -43.8789337 Eh     change       -0.8374291E-05 Eh
 * total energy  :   -43.8789421 Eh     change       -0.8346200E-05 Eh
 * total energy  :   -43.8789497 Eh     change       -0.7654729E-05 Eh
 * total energy  :   -43.8789570 Eh     change       -0.7292477E-05 Eh
 * total energy  :   -43.8789635 Eh     change       -0.6482457E-05 Eh
 * total energy  :   -43.8789688 Eh     change       -0.5328710E-05 Eh
 * total energy  :   -43.8789735 Eh     change       -0.4654442E-05 Eh
   *** GEOMETRY OPTIMIZATION CONVERGED AFTER 19 ITERATIONS ***

 final structure:
================
35
 xtb: 6.7.1 (edcfbbe)
C            1.63812346622180        2.28890406019575       -0.25956738088323
C            1.18828070239049        1.17729594363484       -1.20786751623911
C            1.50098767844929       -0.20790013484750       -0.71903616099625
C            2.75792766309221       -0.55386975028543       -0.31624996718543
C            3.11414289867175       -1.87565031234625       -0.02674854325679
C            2.20144399665264       -2.90461215353645       -0.30317161988394
C            0.93661293675685       -2.62157155961955       -0.69889536511156
C            0.40294988423379       -1.22900860085645       -0.70043554121386
C           -0.48840805927998       -1.01845703610248        0.58815255576329
C           -1.43209762201139       -2.20069896164416        0.82592886218261
C           -1.29788721812263        0.24649391476470        0.52163788056663
C           -2.24254347162188        0.44699719667026       -0.48074447339081
C           -3.00346769205254        1.60048503707928       -0.51752143537534
C           -2.83889468331980        2.57501835737722        0.45259436450657
C           -1.91419111911962        2.38151473840198        1.46344925118778
C           -1.15335302412858        1.22597905876061        1.49686630387148
H            1.34784635176248        3.25753139899579       -0.66025260549717
H            1.16936363767766        2.16621232740745        0.71299038325535
H            2.71659481505879        2.28350095315453       -0.12791169876851
H            1.68824491952806        1.32308513991574       -2.17300978874824
H            0.11543262247089        1.27454099365672       -1.37971658144785
H            3.52949266710680        0.20224741907762       -0.27320166144078
H            4.11302123345193       -2.10778995943752        0.30642694429377
H            2.53322852889545       -3.93209057222304       -0.24350240041629
H            0.25936832600440       -3.41163106615831       -0.98446452331280
H           -0.25950198804384       -1.08532115119656       -1.56344594528754
H            0.20201133581367       -0.95532258796652        1.43567076795977
H           -2.03321652953325       -2.40562977275902       -0.05665810078456
H           -2.10473948619048       -1.96579342287964        1.64918498630461
H           -0.87205603827156       -3.09521119668853        1.08506600996976
H           -2.38647069447532       -0.30414599375868       -1.24450255528108
H           -3.72957893489138        1.73982821877785       -1.30562283316103
H           -3.43217922431658        3.47697518859518        0.42246710731993
H           -1.78497217271404        3.13227813752893        2.22965274174098
H           -0.44121570614564        1.07611614831258        2.29693853875979

          :  Hamiltonian                  GFN2-xTB          :
         :: total energy             -43.878973500409 Eh    ::
         :: gradient norm              0.000393568287 Eh/a0 ::
         :: HOMO-LUMO gap              2.142803813342 eV    ::
         :: SCC energy               -44.663195261683 Eh    ::
         :: -> dispersion             -0.037294322953 Eh    ::
         :: repulsion energy           0.784221761275 Eh    ::

    * Orbital Energies and Occupations

         #    Occupation            Energy/Eh            Energy/eV
      -------------------------------------------------------------
         1        2.0000           -0.6443305             -17.5331
       ...           ...                  ...                  ...
        30        2.0000           -0.4475863             -12.1794
        31        2.0000           -0.4462865             -12.1441
        32        2.0000           -0.4417860             -12.0216
        33        2.0000           -0.4393307             -11.9548
        34        2.0000           -0.4299360             -11.6992
        35        2.0000           -0.4210952             -11.4586
        36        2.0000           -0.4168402             -11.3428
        37        2.0000           -0.4131965             -11.2436
        38        2.0000           -0.4051251             -11.0240
        39        2.0000           -0.4008427             -10.9075
        40        2.0000           -0.3920216             -10.6674
        41        2.0000           -0.3862538             -10.5105
        42        1.0000           -0.2995239              -8.1505 (HOMO)
        43                         -0.2207773              -6.0077 (LUMO)
        44                         -0.2198325              -5.9819
        45                         -0.2030906              -5.5264
        46                         -0.1240718              -3.3762
        47                         -0.0913930              -2.4869
        48                          0.0627471               1.7074
        49                          0.0871952               2.3727
        50                          0.0891828               2.4268
        51                          0.1129596               3.0738
        52                          0.1165896               3.1726
        53                          0.1253641               3.4113
       ...                                ...                  ...
        83                          0.6663286              18.1317
      -------------------------------------------------------------
                  HL-Gap            0.0787466 Eh            2.1428 eV

     #   Z          covCN         q      C6AA      α(0)
     1   6 C        3.751    -0.099    22.459     6.758
     2   6 C        3.805    -0.058    21.605     6.617
     3   6 C        2.957    -0.001    28.047     8.687
     4   6 C        2.909    -0.041    29.007     8.831
     5   6 C        2.916    -0.045    29.115     8.848
     6   6 C        2.904    -0.035    28.865     8.809
     7   6 C        2.910    -0.045    29.117     8.848
     8   6 C        3.859    -0.017    20.832     6.491
     9   6 C        3.856    -0.014    20.787     6.484
    10   6 C        3.756    -0.100    22.455     6.756
    11   6 C        2.973     0.014    27.692     8.632
    12   6 C        2.925    -0.035    28.874     8.812
    13   6 C        2.919    -0.032    28.789     8.799
    14   6 C        2.920    -0.033    28.828     8.805
    15   6 C        2.919    -0.030    28.742     8.791
    16   6 C        2.926    -0.035    28.879     8.813
    17   1 H        0.925     0.032     2.556     2.500
    18   1 H        0.925     0.037     2.486     2.466
    19   1 H        0.925     0.037     2.494     2.470
    20   1 H        0.924     0.040     2.443     2.444
    21   1 H        0.924     0.035     2.516     2.481
    22   1 H        0.926     0.026     2.642     2.542
    23   1 H        0.926     0.022     2.707     2.573
    24   1 H        0.925     0.023     2.691     2.565
    25   1 H        0.926     0.025     2.662     2.551
    26   1 H        0.924     0.041     2.438     2.442
    27   1 H        0.924     0.036     2.505     2.475
    28   1 H        0.925     0.039     2.468     2.457
    29   1 H        0.925     0.036     2.509     2.477
    30   1 H        0.925     0.041     2.435     2.440
    31   1 H        0.926     0.028     2.615     2.529
    32   1 H        0.926     0.027     2.629     2.536
    33   1 H        0.926     0.027     2.625     2.533
    34   1 H        0.926     0.028     2.618     2.530
    35   1 H        0.925     0.025     2.659     2.550

Wiberg/Mayer (AO) data.
largest (>0.10) Wiberg bond orders for each atom

     #   Z sym  total        # sym  WBO       # sym  WBO       # sym  WBO
 ---------------------------------------------------------------------------
     1   6 C    3.996 --     2 C    1.005    17 H    0.987    19 H    0.985
                            18 H    0.984
     2   6 C    3.997 --     3 C    1.023     1 C    1.005    21 H    0.972
                            20 H    0.954
     3   6 C    3.916 --     4 C    1.571     8 C    1.027     2 C    1.023
     4   6 C    3.992 --     3 C    1.571     5 C    1.337    22 H    0.963
     5   6 C    3.877 --     4 C    1.337     6 C    1.307    23 H    0.974
     6   6 C    3.992 --     7 C    1.629     5 C    1.307    24 H    0.968
     7   6 C    3.922 --     6 C    1.629     8 C    1.038    25 H    0.970
     8   6 C    3.994 --     7 C    1.038     3 C    1.027    26 H    0.942
                             9 C    0.888
     9   6 C    3.986 --    11 C    1.007    10 C    0.995    27 H    0.968
                             8 C    0.888
    10   6 C    3.995 --     9 C    0.995    28 H    0.985    29 H    0.984
                            30 H    0.983
    11   6 C    3.988 --    16 C    1.408    12 C    1.400     9 C    1.007
                            14 C    0.108
    12   6 C    3.990 --    13 C    1.452    11 C    1.400    31 H    0.966
                            15 C    0.110
    13   6 C    3.992 --    12 C    1.452    14 C    1.432    32 H    0.971
                            16 C    0.108
    14   6 C    3.989 --    15 C    1.441    13 C    1.432    33 H    0.972
                            11 C    0.108
    15   6 C    3.992 --    16 C    1.442    14 C    1.441    34 H    0.971
                            12 C    0.110
    16   6 C    3.990 --    15 C    1.442    11 C    1.408    35 H    0.968
                            13 C    0.108
    17   1 H    0.998 --     1 C    0.987
    18   1 H    0.999 --     1 C    0.984
    19   1 H    0.999 --     1 C    0.985
    20   1 H    0.998 --     2 C    0.954
    21   1 H    0.998 --     2 C    0.972
    22   1 H    0.999 --     4 C    0.963
    23   1 H    0.999 --     5 C    0.974
    24   1 H    0.999 --     6 C    0.968
    25   1 H    0.999 --     7 C    0.970
    26   1 H    0.998 --     8 C    0.942
    27   1 H    0.998 --     9 C    0.968
    28   1 H    0.998 --    10 C    0.985
    29   1 H    0.997 --    10 C    0.984
    30   1 H    0.997 --    10 C    0.983
    31   1 H    0.999 --    12 C    0.966
    32   1 H    0.999 --    13 C    0.971
    33   1 H    0.999 --    14 C    0.972
    34   1 H    0.999 --    15 C    0.971
    35   1 H    0.999 --    16 C    0.968
 ---------------------------------------------------------------------------

molecular dipole:
                 x           y           z       tot (Debye)
 q only:       -0.232       0.102      -0.027
   full:       -0.267       0.126      -0.039       0.758

           -------------------------------------------------
          | TOTAL ENERGY              -43.878973500409 Eh   |
          | GRADIENT NORM               0.000393568287 Eh/α |
          | HOMO-LUMO GAP               2.142803813342 eV   |
           -------------------------------------------------

 * finished run on 2025/09/15 at 14:52:51.522
