   * xtb version 6.7.1 (edcfbbe) compiled by 'conda@c0858423619e' on 2025-09-04

   ID    Z sym.   atoms
    1    6 C      1-16
    2    1 H      17-35

          program call               : /home/paufv/miniforge3/envs/htvs/bin/xtb gfn_opt.xyz --opt normal --parallel 4 --chrg 0 --uhf 0 --gfn2 --input xtb.inp
          :  Hamiltonian                  GFN2-xTB          :
 * total energy  :   -43.8665000 Eh     change       -0.1050445E-08 Eh
 * total energy  :   -43.8751994 Eh     change       -0.8699351E-02 Eh
 * total energy  :   -43.8776265 Eh     change       -0.2427111E-02 Eh
 * total energy  :   -43.8780435 Eh     change       -0.4170135E-03 Eh
 * total energy  :   -43.8781948 Eh     change       -0.1513505E-03 Eh
 * total energy  :   -43.8782651 Eh     change       -0.7029314E-04 Eh
 * total energy  :   -43.8783638 Eh     change       -0.9869818E-04 Eh
 * total energy  :   -43.8785019 Eh     change       -0.1380574E-03 Eh
 * total energy  :   -43.8786338 Eh     change       -0.1319047E-03 Eh
 * total energy  :   -43.8787290 Eh     change       -0.9525892E-04 Eh
 * total energy  :   -43.8788626 Eh     change       -0.6578907E-04 Eh
 * total energy  :   -43.8789011 Eh     change       -0.3848128E-04 Eh
 * total energy  :   -43.8789726 Eh     change       -0.7148396E-04 Eh
 * total energy  :   -43.8790232 Eh     change       -0.5060990E-04 Eh
 * total energy  :   -43.8790604 Eh     change       -0.3717795E-04 Eh
 * total energy  :   -43.8790808 Eh     change       -0.2041115E-04 Eh
 * total energy  :   -43.8790868 Eh     change       -0.6035813E-05 Eh
 * total energy  :   -43.8790882 Eh     change       -0.1417401E-05 Eh
 * total energy  :   -43.8790925 Eh     change       -0.4312301E-05 Eh
   *** GEOMETRY OPTIMIZATION CONVERGED AFTER 20 ITERATIONS ***

 final structure:
================
35
 xtb: 6.7.1 (edcfbbe)
C            3.10732988997415        0.33833367575944       -2.44686675521504
C            2.50014456593788        1.11763128842316       -1.27236641855118
C            1.99072314037397        0.16110589946816       -0.23848526672510
C            2.83097896871373       -0.38220998606490        0.69060828038024
C            2.45971898690637       -1.48438324400699        1.46752531840613
C            1.26199969517101       -2.15727743560108        1.16910853471496
C            0.38411240979440       -1.64686855739656        0.27246954289590
C            0.56122177843271       -0.27246960764489       -0.28331229533356
C           -0.33646983601590        0.67774160540140        0.60761608065280
C           -0.21411501555465        2.15229763452968        0.23179318755843
C           -1.76846962824863        0.22157724444135        0.53452594299886
C           -2.51063337731066        0.35891473236358       -0.63326515278462
C           -3.82326336011393       -0.07204326220368       -0.69304440314570
C           -4.41713531683307       -0.65309460387936        0.41457615759596
C           -3.68704089722551       -0.80063647113419        1.58109339970978
C           -2.37443693409212       -0.36741073428199        1.63798233873440
H            3.47187839582741        1.02347629226510       -3.20902951755406
H            2.36070861036991       -0.31450391703069       -2.89406648379993
H            3.93568316836517       -0.27744648533379       -2.10476752276964
H            3.27050394629648        1.76257274329637       -0.84267769399493
H            1.69660102289447        1.74616401653998       -1.65531511261328
H            3.83814084682364        0.00451357957615        0.78315313767053
H            3.13558045156230       -1.87952725051872        2.20905420474002
H            1.06831655851859       -3.11371617195879        1.63460169312038
H           -0.52245343121798       -2.17264440867828        0.01426073069775
H            0.17087567768228       -0.20822623565183       -1.30489932527969
H            0.02057992306455        0.55665451696307        1.63554840422988
H            0.79124817760224        2.51498080954929        0.42769825637486
H           -0.45177717232889        2.31908587708894       -0.81566576019110
H           -0.91175022714536        2.73358314335190        0.83238412000238
H           -2.06228532527235        0.80393090036246       -1.50959862310090
H           -4.38530491632032        0.04399373309513       -1.60856629436947
H           -5.44211037519990       -0.99013407153674        0.36733514836311
H           -4.14097950693996       -1.25451610491090        2.45000301830042
H           -1.80832089449170       -0.48934914464297        2.55078912828349

          :  Hamiltonian                  GFN2-xTB          :
         :: total energy             -43.879092527551 Eh    ::
         :: gradient norm              0.000812845283 Eh/a0 ::
         :: HOMO-LUMO gap              2.212368131776 eV    ::
         :: SCC energy               -44.664033167756 Eh    ::
         :: -> dispersion             -0.035928779172 Eh    ::
         :: repulsion energy           0.784940640205 Eh    ::

    * Orbital Energies and Occupations

         #    Occupation            Energy/Eh            Energy/eV
      -------------------------------------------------------------
         1        2.0000           -0.6427846             -17.4911
       ...           ...                  ...                  ...
        30        2.0000           -0.4544967             -12.3675
        31        2.0000           -0.4470031             -12.1636
        32        2.0000           -0.4407977             -11.9947
        33        2.0000           -0.4343770             -11.8200
        34        2.0000           -0.4313565             -11.7378
        35        2.0000           -0.4210805             -11.4582
        36        2.0000           -0.4157549             -11.3133
        37        2.0000           -0.4126388             -11.2285
        38        2.0000           -0.4056643             -11.0387
        39        2.0000           -0.4001080             -10.8875
        40        2.0000           -0.3930821             -10.6963
        41        2.0000           -0.3859179             -10.5014
        42        1.0000           -0.3006432              -8.1809 (HOMO)
        43                         -0.2193402              -5.9686 (LUMO)
        44                         -0.2181248              -5.9355
        45                         -0.2033062              -5.5322
        46                         -0.1259343              -3.4268
        47                         -0.0893695              -2.4319
        48                          0.0663494               1.8055
        49                          0.0888185               2.4169
        50                          0.1063554               2.8941
        51                          0.1107852               3.0146
        52                          0.1171585               3.1880
        53                          0.1241618               3.3786
       ...                                ...                  ...
        83                          0.6685022              18.1909
      -------------------------------------------------------------
                  HL-Gap            0.0813030 Eh            2.2124 eV

     #   Z          covCN         q      C6AA      α(0)
     1   6 C        3.754    -0.097    22.415     6.751
     2   6 C        3.805    -0.057    21.600     6.616
     3   6 C        2.962     0.001    28.003     8.680
     4   6 C        2.910    -0.041    29.026     8.834
     5   6 C        2.916    -0.044    29.094     8.845
     6   6 C        2.905    -0.034    28.855     8.808
     7   6 C        2.914    -0.042    29.054     8.839
     8   6 C        3.862    -0.015    20.809     6.487
     9   6 C        3.859    -0.015    20.799     6.486
    10   6 C        3.754    -0.100    22.460     6.758
    11   6 C        2.973     0.012    27.747     8.640
    12   6 C        2.925    -0.035    28.868     8.811
    13   6 C        2.919    -0.032    28.786     8.798
    14   6 C        2.920    -0.033    28.833     8.805
    15   6 C        2.919    -0.030    28.750     8.793
    16   6 C        2.926    -0.037    28.910     8.818
    17   1 H        0.925     0.035     2.511     2.478
    18   1 H        0.925     0.034     2.529     2.487
    19   1 H        0.925     0.036     2.498     2.471
    20   1 H        0.924     0.034     2.533     2.489
    21   1 H        0.925     0.039     2.468     2.457
    22   1 H        0.925     0.023     2.684     2.562
    23   1 H        0.926     0.022     2.704     2.571
    24   1 H        0.926     0.024     2.676     2.558
    25   1 H        0.926     0.022     2.705     2.572
    26   1 H        0.924     0.041     2.434     2.440
    27   1 H        0.924     0.036     2.497     2.471
    28   1 H        0.925     0.040     2.446     2.446
    29   1 H        0.925     0.037     2.487     2.466
    30   1 H        0.925     0.037     2.486     2.466
    31   1 H        0.926     0.028     2.608     2.525
    32   1 H        0.926     0.027     2.624     2.533
    33   1 H        0.926     0.028     2.622     2.532
    34   1 H        0.926     0.028     2.609     2.526
    35   1 H        0.926     0.027     2.630     2.536

Wiberg/Mayer (AO) data.
largest (>0.10) Wiberg bond orders for each atom

     #   Z sym  total        # sym  WBO       # sym  WBO       # sym  WBO
 ---------------------------------------------------------------------------
     1   6 C    3.995 --     2 C    0.990    19 H    0.989    18 H    0.988
                            17 H    0.986
     2   6 C    3.997 --     3 C    1.024     1 C    0.990    20 H    0.972
                            21 H    0.971
     3   6 C    3.912 --     4 C    1.561     8 C    1.030     2 C    1.024
     4   6 C    3.991 --     3 C    1.561     5 C    1.343    22 H    0.965
     5   6 C    3.877 --     4 C    1.343     6 C    1.300    23 H    0.974
     6   6 C    3.992 --     7 C    1.638     5 C    1.300    24 H    0.967
     7   6 C    3.924 --     6 C    1.638     8 C    1.033    25 H    0.971
     8   6 C    3.994 --     7 C    1.033     3 C    1.030    26 H    0.949
                             9 C    0.880
     9   6 C    3.985 --    11 C    1.005    10 C    1.001    27 H    0.968
                             8 C    0.880
    10   6 C    3.996 --     9 C    1.001    28 H    0.984    30 H    0.983
                            29 H    0.982
    11   6 C    3.988 --    16 C    1.408    12 C    1.407     9 C    1.005
                            14 C    0.109
    12   6 C    3.991 --    13 C    1.449    11 C    1.407    31 H    0.967
                            15 C    0.110
    13   6 C    3.992 --    12 C    1.449    14 C    1.435    32 H    0.971
                            16 C    0.110
    14   6 C    3.989 --    15 C    1.439    13 C    1.435    33 H    0.972
                            11 C    0.109
    15   6 C    3.992 --    16 C    1.445    14 C    1.439    34 H    0.971
                            12 C    0.110
    16   6 C    3.992 --    15 C    1.445    11 C    1.408    35 H    0.969
                            13 C    0.110
    17   1 H    0.997 --     1 C    0.986
    18   1 H    0.999 --     1 C    0.988
    19   1 H    0.999 --     1 C    0.989
    20   1 H    0.998 --     2 C    0.972
    21   1 H    0.998 --     2 C    0.971
    22   1 H    0.999 --     4 C    0.965
    23   1 H    0.999 --     5 C    0.974
    24   1 H    0.999 --     6 C    0.967
    25   1 H    0.999 --     7 C    0.971
    26   1 H    0.998 --     8 C    0.949
    27   1 H    0.998 --     9 C    0.968
    28   1 H    0.998 --    10 C    0.984
    29   1 H    0.998 --    10 C    0.982
    30   1 H    0.997 --    10 C    0.983
    31   1 H    0.999 --    12 C    0.967
    32   1 H    0.999 --    13 C    0.971
    33   1 H    0.999 --    14 C    0.972
    34   1 H    0.999 --    15 C    0.971
    35   1 H    0.999 --    16 C    0.969
 ---------------------------------------------------------------------------

molecular dipole:
                 x           y           z       tot (Debye)
 q only:        0.020       0.356      -0.232
   full:        0.002       0.331      -0.246       1.047

           -------------------------------------------------
          | TOTAL ENERGY              -43.879092527551 Eh   |
          | GRADIENT NORM               0.000812845283 Eh/α |
          | HOMO-LUMO GAP               2.212368131776 eV   |
           -------------------------------------------------

 * finished run on 2025/09/15 at 14:52:50.987
