   * xtb version 6.7.1 (edcfbbe) compiled by 'conda@c0858423619e' on 2025-09-04

   ID    Z sym.   atoms
    1    6 C      1-16
    2    1 H      17-35

          program call               : /home/paufv/miniforge3/envs/htvs/bin/xtb gfn_opt.xyz --opt normal --parallel 4 --chrg 0 --uhf 0 --gfn2 --input xtb.inp
          :  Hamiltonian                  GFN2-xTB          :
 * total energy  :   -43.8680533 Eh     change       -0.2555538E-09 Eh
 * total energy  :   -43.8769268 Eh     change       -0.8873548E-02 Eh
 * total energy  :   -43.8793299 Eh     change       -0.2403093E-02 Eh
 * total energy  :   -43.8797145 Eh     change       -0.3845492E-03 Eh
 * total energy  :   -43.8798424 Eh     change       -0.1279067E-03 Eh
 * total energy  :   -43.8798789 Eh     change       -0.3650667E-04 Eh
 * total energy  :   -43.8799167 Eh     change       -0.3777941E-04 Eh
 * total energy  :   -43.8799444 Eh     change       -0.2773276E-04 Eh
 * total energy  :   -43.8799707 Eh     change       -0.2633188E-04 Eh
 * total energy  :   -43.8799913 Eh     change       -0.2061825E-04 Eh
 * total energy  :   -43.8803894 Eh     change       -0.2060294E-04 Eh
 * total energy  :   -43.8803983 Eh     change       -0.8965856E-05 Eh
 * total energy  :   -43.8804126 Eh     change       -0.1426142E-04 Eh
 * total energy  :   -43.8804219 Eh     change       -0.9275554E-05 Eh
 * total energy  :   -43.8804398 Eh     change       -0.1797726E-04 Eh
 * total energy  :   -43.8804501 Eh     change       -0.1022107E-04 Eh
 * total energy  :   -43.8804582 Eh     change       -0.8166164E-05 Eh
 * total energy  :   -43.8804647 Eh     change       -0.6459234E-05 Eh
 * total energy  :   -43.8804682 Eh     change       -0.3495710E-05 Eh
   *** GEOMETRY OPTIMIZATION CONVERGED AFTER 44 ITERATIONS ***

 final structure:
================
35
 xtb: 6.7.1 (edcfbbe)
C           -2.26639632570256       -0.06845088889431        2.21446979569518
C           -1.23056443630239        0.72941898927241        1.41285549819790
C           -1.43217462335363        0.51801361031278       -0.05435320205626
C           -2.19504643908749        1.37400044361798       -0.79388865229409
C           -2.59091570276064        1.07337848895841       -2.10242019554638
C           -2.34201130229600       -0.21161962022399       -2.61016183431741
C           -1.57221837561310       -1.09202678296829       -1.92406501360136
C           -0.81313325417860       -0.67675215912743       -0.71012644831938
C            0.66347471633322       -0.31166641879933       -1.15327141808753
C            1.27763904857378       -1.41616286388850       -2.01529662530042
C            1.53845510535758       -0.02777803339921        0.03337149439936
C            1.99499636228046        1.26324308049220        0.27625567200089
C            2.81003035480141        1.53612414747512        1.36013267422899
C            3.18387120001102        0.51932245830782        2.22189060342449
C            2.73550471405328       -0.77060517137712        1.99170609427491
C            1.92063320700437       -1.04106589970143        0.90799669670748
H           -2.16713902855153       -1.13272217214849        2.01410809492906
H           -2.12642118251576        0.09695054941205        3.28018300441599
H           -3.27363291931970        0.23818429730004        1.94188855369487
H           -0.23247867534854        0.41213275899564        1.71752810481519
H           -1.34100126802604        1.78946564534201        1.65129725738134
H           -2.55883833732244        2.28552604567196       -0.33803027142942
H           -3.17616330359123        1.77938298826712       -2.66974339871355
H           -2.81348707765881       -0.51025785324872       -3.53631303583030
H           -1.43794791234876       -2.10272955786502       -2.27730918110277
H           -0.72787880424279       -1.50784863389675       -0.00119857023141
H            0.58474383367736        0.59644535146773       -1.75951874708191
H            2.33036080347590       -1.19925847358274       -2.18777769930808
H            1.20394138129833       -2.38540926941775       -1.52842848473212
H            0.77678909791498       -1.47295787333277       -2.97798460496231
H            1.70346716616674        2.06182320840772       -0.39123049987495
H            3.15532652347667        2.54524928690521        1.53229994419950
H            3.82082087846594        0.72985010889501        3.06828593613017
H            3.02202715959982       -1.56954141943935        2.66050993840756
H            1.57526741572895       -2.05175836778755        0.74623851988589

          :  Hamiltonian                  GFN2-xTB          :
         :: total energy             -43.880468182435 Eh    ::
         :: gradient norm              0.000232208852 Eh/a0 ::
         :: HOMO-LUMO gap              2.174571720102 eV    ::
         :: SCC energy               -44.665215549351 Eh    ::
         :: -> dispersion             -0.036692796529 Eh    ::
         :: repulsion energy           0.784747366916 Eh    ::

    * Orbital Energies and Occupations

         #    Occupation            Energy/Eh            Energy/eV
      -------------------------------------------------------------
         1        2.0000           -0.6444336             -17.5359
       ...           ...                  ...                  ...
        30        2.0000           -0.4529310             -12.3249
        31        2.0000           -0.4450753             -12.1111
        32        2.0000           -0.4407954             -11.9947
        33        2.0000           -0.4346574             -11.8276
        34        2.0000           -0.4316044             -11.7446
        35        2.0000           -0.4207425             -11.4490
        36        2.0000           -0.4174303             -11.3589
        37        2.0000           -0.4129272             -11.2363
        38        2.0000           -0.4062836             -11.0555
        39        2.0000           -0.4020195             -10.9395
        40        2.0000           -0.3925124             -10.6808
        41        2.0000           -0.3861759             -10.5084
        42        1.0000           -0.3006169              -8.1802 (HOMO)
        43                         -0.2207029              -6.0056 (LUMO)
        44                         -0.2198293              -5.9819
        45                         -0.2032845              -5.5317
        46                         -0.1254052              -3.4124
        47                         -0.0911945              -2.4815
        48                          0.0654308               1.7805
        49                          0.0924743               2.5164
        50                          0.1028008               2.7974
        51                          0.1112577               3.0275
        52                          0.1178975               3.2082
        53                          0.1261793               3.4335
       ...                                ...                  ...
        83                          0.6660078              18.1230
      -------------------------------------------------------------
                  HL-Gap            0.0799140 Eh            2.1746 eV

     #   Z          covCN         q      C6AA      α(0)
     1   6 C        3.754    -0.096    22.395     6.748
     2   6 C        3.806    -0.058    21.615     6.619
     3   6 C        2.962     0.001    28.002     8.680
     4   6 C        2.910    -0.042    29.033     8.835
     5   6 C        2.916    -0.044    29.092     8.845
     6   6 C        2.905    -0.035    28.868     8.810
     7   6 C        2.911    -0.044    29.090     8.844
     8   6 C        3.861    -0.015    20.805     6.487
     9   6 C        3.857    -0.015    20.799     6.486
    10   6 C        3.755    -0.100    22.465     6.758
    11   6 C        2.972     0.012    27.740     8.639
    12   6 C        2.925    -0.037    28.928     8.820
    13   6 C        2.918    -0.030    28.754     8.793
    14   6 C        2.920    -0.034    28.842     8.807
    15   6 C        2.919    -0.032    28.795     8.800
    16   6 C        2.925    -0.035    28.879     8.813
    17   1 H        0.925     0.034     2.535     2.490
    18   1 H        0.925     0.036     2.507     2.476
    19   1 H        0.925     0.036     2.499     2.472
    20   1 H        0.924     0.038     2.470     2.458
    21   1 H        0.924     0.034     2.533     2.489
    22   1 H        0.925     0.023     2.682     2.561
    23   1 H        0.926     0.022     2.706     2.572
    24   1 H        0.925     0.023     2.689     2.564
    25   1 H        0.926     0.024     2.666     2.554
    26   1 H        0.924     0.041     2.433     2.439
    27   1 H        0.924     0.036     2.500     2.473
    28   1 H        0.925     0.036     2.500     2.472
    29   1 H        0.925     0.039     2.466     2.456
    30   1 H        0.925     0.040     2.444     2.445
    31   1 H        0.926     0.027     2.627     2.535
    32   1 H        0.926     0.029     2.607     2.525
    33   1 H        0.926     0.028     2.621     2.532
    34   1 H        0.926     0.028     2.622     2.532
    35   1 H        0.926     0.030     2.589     2.516

Wiberg/Mayer (AO) data.
largest (>0.10) Wiberg bond orders for each atom

     #   Z sym  total        # sym  WBO       # sym  WBO       # sym  WBO
 ---------------------------------------------------------------------------
     1   6 C    3.996 --     2 C    0.990    19 H    0.989    17 H    0.988
                            18 H    0.986
     2   6 C    3.997 --     3 C    1.027     1 C    0.990    21 H    0.973
                            20 H    0.964
     3   6 C    3.918 --     4 C    1.568     8 C    1.028     2 C    1.027
     4   6 C    3.991 --     3 C    1.568     5 C    1.337    22 H    0.965
     5   6 C    3.877 --     4 C    1.337     6 C    1.307    23 H    0.974
     6   6 C    3.991 --     7 C    1.628     5 C    1.307    24 H    0.967
     7   6 C    3.921 --     6 C    1.628     8 C    1.038    25 H    0.971
     8   6 C    3.994 --     7 C    1.038     3 C    1.028    26 H    0.948
                             9 C    0.879
     9   6 C    3.986 --    11 C    1.010    10 C    0.999    27 H    0.968
                             8 C    0.879
    10   6 C    3.996 --     9 C    0.999    29 H    0.984    28 H    0.984
                            30 H    0.984
    11   6 C    3.988 --    12 C    1.404    16 C    1.400     9 C    1.010
                            14 C    0.108
    12   6 C    3.991 --    13 C    1.446    11 C    1.404    31 H    0.969
                            15 C    0.109
    13   6 C    3.992 --    12 C    1.446    14 C    1.438    32 H    0.971
                            16 C    0.110
    14   6 C    3.988 --    13 C    1.438    15 C    1.433    33 H    0.972
                            11 C    0.108
    15   6 C    3.992 --    16 C    1.451    14 C    1.433    34 H    0.971
                            12 C    0.109
    16   6 C    3.990 --    15 C    1.451    11 C    1.400    35 H    0.967
                            13 C    0.110
    17   1 H    0.999 --     1 C    0.988
    18   1 H    0.997 --     1 C    0.986
    19   1 H    0.999 --     1 C    0.989
    20   1 H    0.998 --     2 C    0.964
    21   1 H    0.998 --     2 C    0.973
    22   1 H    0.999 --     4 C    0.965
    23   1 H    0.999 --     5 C    0.974
    24   1 H    0.999 --     6 C    0.967
    25   1 H    0.999 --     7 C    0.971
    26   1 H    0.998 --     8 C    0.948
    27   1 H    0.998 --     9 C    0.968
    28   1 H    0.997 --    10 C    0.984
    29   1 H    0.998 --    10 C    0.984
    30   1 H    0.998 --    10 C    0.984
    31   1 H    0.999 --    12 C    0.969
    32   1 H    0.999 --    13 C    0.971
    33   1 H    0.999 --    14 C    0.972
    34   1 H    0.999 --    15 C    0.971
    35   1 H    0.999 --    16 C    0.967
 ---------------------------------------------------------------------------

molecular dipole:
                 x           y           z       tot (Debye)
 q only:        0.171      -0.170       0.148
   full:        0.183      -0.173       0.170       0.773

           -------------------------------------------------
          | TOTAL ENERGY              -43.880468182435 Eh   |
          | GRADIENT NORM               0.000232208852 Eh/α |
          | HOMO-LUMO GAP               2.174571720102 eV   |
           -------------------------------------------------

 * finished run on 2025/09/15 at 14:52:50.724
