   * xtb version 6.7.1 (edcfbbe) compiled by 'conda@c0858423619e' on 2025-09-04

   ID    Z sym.   atoms
    1    6 C      1-16
    2    1 H      17-35

          program call               : /home/paufv/miniforge3/envs/htvs/bin/xtb gfn_opt.xyz --opt normal --parallel 4 --chrg 0 --uhf 0 --gfn2 --input xtb.inp
          :  Hamiltonian                  GFN2-xTB          :
 * total energy  :   -43.8705635 Eh     change       -0.6632206E-09 Eh
 * total energy  :   -43.8785697 Eh     change       -0.8006200E-02 Eh
 * total energy  :   -43.8804111 Eh     change       -0.1841405E-02 Eh
 * total energy  :   -43.8807378 Eh     change       -0.3267181E-03 Eh
 * total energy  :   -43.8808772 Eh     change       -0.1393843E-03 Eh
 * total energy  :   -43.8809199 Eh     change       -0.4266869E-04 Eh
 * total energy  :   -43.8809825 Eh     change       -0.6257767E-04 Eh
 * total energy  :   -43.8810132 Eh     change       -0.3070262E-04 Eh
 * total energy  :   -43.8810602 Eh     change       -0.4700244E-04 Eh
 * total energy  :   -43.8810765 Eh     change       -0.1633554E-04 Eh
 * total energy  :   -43.8811274 Eh     change       -0.1459243E-04 Eh
 * total energy  :   -43.8811414 Eh     change       -0.1397732E-04 Eh
 * total energy  :   -43.8811512 Eh     change       -0.9779572E-05 Eh
 * total energy  :   -43.8811600 Eh     change       -0.8753867E-05 Eh
 * total energy  :   -43.8811704 Eh     change       -0.1040529E-04 Eh
 * total energy  :   -43.8811802 Eh     change       -0.9846230E-05 Eh
 * total energy  :   -43.8811876 Eh     change       -0.7356116E-05 Eh
 * total energy  :   -43.8811941 Eh     change       -0.6512689E-05 Eh
 * total energy  :   -43.8811978 Eh     change       -0.3678554E-05 Eh
   *** GEOMETRY OPTIMIZATION CONVERGED AFTER 22 ITERATIONS ***

 final structure:
================
35
 xtb: 6.7.1 (edcfbbe)
C           -2.89392449127368       -2.14348266649908        0.13633088456455
C           -2.72428111648413       -0.80323599855652        0.85813779769417
C           -2.07752495589319        0.24017638755946       -0.00338661507722
C           -2.75960042499367        1.36494961950015       -0.36368745931854
C           -2.22429805981080        2.32681717693099       -1.22683945962688
C           -0.96459609944743        2.10717920334652       -1.80377828103925
C           -0.23297734431724        1.01254467069185       -1.48353543335269
C           -0.66868942192166        0.02186502744882       -0.46063028832270
C            0.32625264037673        0.03381463052723        0.76821677827016
C            0.24499994782994        1.36492964676585        1.50704907683997
C            1.70878897718417       -0.32223576152105        0.29727756351786
C            2.65462947879217        0.63619070865818       -0.04865287003805
C            3.90463960365829        0.26155781633524       -0.50920737182145
C            4.23208727883469       -1.07703817662461       -0.63652824515455
C            3.29846306048556       -2.04165452824585       -0.29774467185725
C            2.05094186577545       -1.66483705960867        0.16321926534191
H           -3.43481880989819       -2.00322892003510       -0.79666679501765
H           -3.45384845031299       -2.83586077924056        0.76100693130888
H           -1.92972431914025       -2.59271714062053       -0.08827529468566
H           -2.13584425884567       -0.96866990872586        1.76570859143883
H           -3.70844792036693       -0.44460156674260        1.16746977115736
H           -3.76414358099983        1.51237570946870        0.01161192483526
H           -2.79355847559137        3.20729685494867       -1.47797968093292
H           -0.58713917175298        2.81506660377128       -2.52891384178293
H            0.72619740376877        0.83348314938946       -1.94630534078102
H           -0.57020131220136       -0.98871527897094       -0.88551852727805
H           -0.00304118115047       -0.76008027370723        1.44646071140744
H            1.01311628033154        1.41689254464440        2.27627899979169
H            0.37003031665175        2.20073900705143        0.82365112335270
H           -0.72919729321155        1.46681402024129        1.98021384884707
H            2.41795731052487        1.68508476461766        0.03916105164520
H            4.62707316574115        1.02109877394128       -0.77179253566459
H            5.20824012444050       -1.36710564947805       -0.99640289435548
H            3.54369379626192       -3.08976679976906       -0.39178504613561
H            1.32904543695370       -2.42574580748938        0.42873633222752

          :  Hamiltonian                  GFN2-xTB          :
         :: total energy             -43.881197758611 Eh    ::
         :: gradient norm              0.000258979289 Eh/a0 ::
         :: HOMO-LUMO gap              2.225476536160 eV    ::
         :: SCC energy               -44.666137206416 Eh    ::
         :: -> dispersion             -0.036243714405 Eh    ::
         :: repulsion energy           0.784939447805 Eh    ::

    * Orbital Energies and Occupations

         #    Occupation            Energy/Eh            Energy/eV
      -------------------------------------------------------------
         1        2.0000           -0.6425846             -17.4856
       ...           ...                  ...                  ...
        30        2.0000           -0.4528163             -12.3218
        31        2.0000           -0.4484670             -12.2034
        32        2.0000           -0.4404127             -11.9842
        33        2.0000           -0.4386893             -11.9373
        34        2.0000           -0.4316272             -11.7452
        35        2.0000           -0.4223528             -11.4928
        36        2.0000           -0.4170122             -11.3475
        37        2.0000           -0.4111419             -11.1877
        38        2.0000           -0.4063757             -11.0580
        39        2.0000           -0.3991289             -10.8608
        40        2.0000           -0.3930669             -10.6959
        41        2.0000           -0.3897104             -10.6046
        42        1.0000           -0.3003435              -8.1728 (HOMO)
        43                         -0.2185588              -5.9473 (LUMO)
        44                         -0.2174742              -5.9178
        45                         -0.2051114              -5.5814
        46                         -0.1229711              -3.3462
        47                         -0.0887736              -2.4157
        48                          0.0752426               2.0475
        49                          0.0835696               2.2740
        50                          0.0889108               2.4194
        51                          0.1041974               2.8354
        52                          0.1085639               2.9542
        53                          0.1218270               3.3151
       ...                                ...                  ...
        83                          0.6685080              18.1910
      -------------------------------------------------------------
                  HL-Gap            0.0817848 Eh            2.2255 eV

     #   Z          covCN         q      C6AA      α(0)
     1   6 C        3.752    -0.097    22.414     6.752
     2   6 C        3.805    -0.057    21.587     6.614
     3   6 C        2.956     0.000    28.016     8.682
     4   6 C        2.909    -0.039    28.971     8.826
     5   6 C        2.915    -0.044    29.098     8.846
     6   6 C        2.903    -0.032    28.806     8.800
     7   6 C        2.908    -0.041    29.019     8.833
     8   6 C        3.860    -0.015    20.800     6.486
     9   6 C        3.855    -0.016    20.817     6.489
    10   6 C        3.753    -0.100    22.474     6.760
    11   6 C        2.970     0.010    27.791     8.647
    12   6 C        2.924    -0.036    28.894     8.815
    13   6 C        2.919    -0.031    28.779     8.797
    14   6 C        2.920    -0.034    28.841     8.807
    15   6 C        2.918    -0.031    28.776     8.797
    16   6 C        2.927    -0.039    28.967     8.826
    17   1 H        0.925     0.036     2.509     2.477
    18   1 H        0.925     0.035     2.519     2.482
    19   1 H        0.925     0.033     2.543     2.494
    20   1 H        0.924     0.037     2.491     2.468
    21   1 H        0.924     0.034     2.526     2.485
    22   1 H        0.925     0.023     2.693     2.566
    23   1 H        0.926     0.023     2.694     2.567
    24   1 H        0.925     0.023     2.687     2.563
    25   1 H        0.926     0.024     2.669     2.555
    26   1 H        0.923     0.049     2.335     2.390
    27   1 H        0.924     0.037     2.493     2.469
    28   1 H        0.925     0.036     2.507     2.476
    29   1 H        0.925     0.040     2.445     2.445
    30   1 H        0.925     0.035     2.513     2.479
    31   1 H        0.926     0.035     2.521     2.483
    32   1 H        0.926     0.027     2.629     2.535
    33   1 H        0.926     0.027     2.634     2.538
    34   1 H        0.926     0.027     2.633     2.538
    35   1 H        0.925     0.022     2.699     2.569

Wiberg/Mayer (AO) data.
largest (>0.10) Wiberg bond orders for each atom

     #   Z sym  total        # sym  WBO       # sym  WBO       # sym  WBO
 ---------------------------------------------------------------------------
     1   6 C    3.996 --     2 C    0.998    17 H    0.989    18 H    0.987
                            19 H    0.985
     2   6 C    3.997 --     3 C    1.024     1 C    0.998    21 H    0.975
                            20 H    0.958
     3   6 C    3.916 --     4 C    1.571     8 C    1.030     2 C    1.024
     4   6 C    3.991 --     3 C    1.571     5 C    1.336    22 H    0.965
     5   6 C    3.876 --     4 C    1.336     6 C    1.309    23 H    0.974
     6   6 C    3.993 --     7 C    1.629     5 C    1.309    24 H    0.968
     7   6 C    3.926 --     6 C    1.629     8 C    1.045    25 H    0.969
     8   6 C    3.994 --     7 C    1.045     3 C    1.030    26 H    0.925
                             9 C    0.886
     9   6 C    3.989 --    10 C    1.010    11 C    1.010    27 H    0.958
                             8 C    0.886
    10   6 C    3.996 --     9 C    1.010    28 H    0.985    30 H    0.985
                            29 H    0.982
    11   6 C    3.988 --    12 C    1.406    16 C    1.403     9 C    1.010
                            14 C    0.108
    12   6 C    3.989 --    13 C    1.445    11 C    1.406    31 H    0.967
                            15 C    0.109
    13   6 C    3.992 --    12 C    1.445    14 C    1.439    32 H    0.971
                            16 C    0.110
    14   6 C    3.988 --    13 C    1.439    15 C    1.434    33 H    0.972
                            11 C    0.108
    15   6 C    3.992 --    16 C    1.451    14 C    1.434    34 H    0.971
                            12 C    0.109
    16   6 C    3.990 --    15 C    1.451    11 C    1.403    35 H    0.969
                            13 C    0.110
    17   1 H    0.999 --     1 C    0.989
    18   1 H    0.998 --     1 C    0.987
    19   1 H    0.999 --     1 C    0.985
    20   1 H    0.998 --     2 C    0.958
    21   1 H    0.998 --     2 C    0.975
    22   1 H    0.999 --     4 C    0.965
    23   1 H    0.999 --     5 C    0.974
    24   1 H    0.999 --     6 C    0.968
    25   1 H    0.999 --     7 C    0.969
    26   1 H    0.996 --     8 C    0.925
    27   1 H    0.998 --     9 C    0.958
    28   1 H    0.999 --    10 C    0.985
    29   1 H    0.998 --    10 C    0.982
    30   1 H    0.998 --    10 C    0.985
    31   1 H    0.999 --    12 C    0.967
    32   1 H    0.999 --    13 C    0.971
    33   1 H    0.999 --    14 C    0.972
    34   1 H    0.999 --    15 C    0.971
    35   1 H    0.999 --    16 C    0.969
 ---------------------------------------------------------------------------

molecular dipole:
                 x           y           z       tot (Debye)
 q only:       -0.097      -0.201       0.233
   full:       -0.084      -0.259       0.229       0.904

           -------------------------------------------------
          | TOTAL ENERGY              -43.881197758611 Eh   |
          | GRADIENT NORM               0.000258979289 Eh/α |
          | HOMO-LUMO GAP               2.225476536160 eV   |
           -------------------------------------------------

 * finished run on 2025/09/15 at 14:52:49.444
