   * xtb version 6.7.1 (edcfbbe) compiled by 'conda@c0858423619e' on 2025-09-04

   ID    Z sym.   atoms
    1    6 C      1-16
    2    1 H      17-35

          program call               : /home/paufv/miniforge3/envs/htvs/bin/xtb gfn_opt.xyz --opt normal --parallel 4 --chrg 0 --uhf 0 --gfn2 --input xtb.inp
          :  Hamiltonian                  GFN2-xTB          :
 * total energy  :   -43.8706286 Eh     change       -0.1353868E-09 Eh
 * total energy  :   -43.8774982 Eh     change       -0.6869659E-02 Eh
 * total energy  :   -43.8791961 Eh     change       -0.1697859E-02 Eh
 * total energy  :   -43.8796134 Eh     change       -0.4173125E-03 Eh
 * total energy  :   -43.8798607 Eh     change       -0.2473097E-03 Eh
 * total energy  :   -43.8799473 Eh     change       -0.8656319E-04 Eh
 * total energy  :   -43.8800221 Eh     change       -0.7477471E-04 Eh
 * total energy  :   -43.8800763 Eh     change       -0.5426306E-04 Eh
 * total energy  :   -43.8801198 Eh     change       -0.4350591E-04 Eh
 * total energy  :   -43.8801635 Eh     change       -0.4371596E-04 Eh
 * total energy  :   -43.8801856 Eh     change       -0.2209738E-04 Eh
 * total energy  :   -43.8802044 Eh     change       -0.1878272E-04 Eh
 * total energy  :   -43.8802154 Eh     change       -0.1097702E-04 Eh
 * total energy  :   -43.8802230 Eh     change       -0.7574315E-05 Eh
 * total energy  :   -43.8802310 Eh     change       -0.7987528E-05 Eh
 * total energy  :   -43.8802351 Eh     change       -0.4179058E-05 Eh
   *** GEOMETRY OPTIMIZATION CONVERGED AFTER 16 ITERATIONS ***

 final structure:
================
35
 xtb: 6.7.1 (edcfbbe)
C            3.11122034544547        0.75303374792541       -1.48830899616035
C            2.43012110674972       -0.60810893793840       -1.49190831694571
C            1.66309259388592       -0.88024927541365       -0.16532961825816
C            2.62387761925292       -0.87742537104379        0.97651597029373
C            2.56756491041861        0.03179611414603        1.97787044228039
C            1.54644880847669        0.99450876848818        2.02387562386121
C            0.53521316138826        0.97390599187911        1.05876652835646
C            0.53493479151622        0.08794923982202        0.02259728580321
C           -0.62464210765966        0.02141665336524       -0.94448338984640
C           -0.72113182640506        1.28284608789864       -1.80800858955731
C           -1.87574806433296       -0.25978746253727       -0.13872925399758
C           -2.77458282993310        0.72922523304225        0.23739865681356
C           -3.87949022047211        0.42149587096445        1.01345467985369
C           -4.10310069445345       -0.87839373101757        1.42922379308890
C           -3.21255762997939       -1.87306603371709        1.06145956473964
C           -2.11143057681196       -1.56347142399345        0.28603887845686
H            2.38214880314650        1.54422508663464       -1.33150318468458
H            3.61625090995524        0.92595231193271       -2.43651428489268
H            3.84592736115441        0.80775141352062       -0.68857885443984
H            1.73248383094096       -0.66945533020448       -2.32905826493790
H            3.17974380081862       -1.39157810270736       -1.62340385194516
H            1.24337949944429       -1.89563728162077       -0.27342378250209
H            3.40319967950162       -1.62539900252982        0.94838133644778
H            3.30714862809754        0.01455133456279        2.76654065427271
H            1.51834702145667        1.71890724735061        2.82179261973056
H           -0.28726332888569        1.66879524265372        1.16048756720424
H           -0.47143635015489       -0.83216374208172       -1.61462698952330
H           -1.63464484072060        1.26533658215689       -2.39941520991208
H            0.12772002620250        1.33171493499937       -2.48639577061039
H           -0.71235440083596        2.18164972143707       -1.19717029266844
H           -2.62576497289527        1.75071868966374       -0.07672024305353
H           -4.56985064791684        1.20425696647961        1.29347656388588
H           -4.96614631912221       -1.11658909332341        2.03320921174184
H           -3.37799914749234       -2.89266279664611        1.37833974138630
H           -1.42067893978012       -2.34614965414735        0.00414977571997

          :  Hamiltonian                  GFN2-xTB          :
         :: total energy             -43.880235137584 Eh    ::
         :: gradient norm              0.000590005018 Eh/a0 ::
         :: HOMO-LUMO gap              2.243348996620 eV    ::
         :: SCC energy               -44.665191768798 Eh    ::
         :: -> dispersion             -0.036365294939 Eh    ::
         :: repulsion energy           0.784956631214 Eh    ::

    * Orbital Energies and Occupations

         #    Occupation            Energy/Eh            Energy/eV
      -------------------------------------------------------------
         1        2.0000           -0.6414785             -17.4555
       ...           ...                  ...                  ...
        30        2.0000           -0.4517996             -12.2941
        31        2.0000           -0.4451787             -12.1139
        32        2.0000           -0.4413781             -12.0105
        33        2.0000           -0.4366803             -11.8827
        34        2.0000           -0.4310860             -11.7304
        35        2.0000           -0.4228128             -11.5053
        36        2.0000           -0.4158044             -11.3146
        37        2.0000           -0.4146902             -11.2843
        38        2.0000           -0.4052178             -11.0265
        39        2.0000           -0.3984256             -10.8417
        40        2.0000           -0.3931286             -10.6976
        41        2.0000           -0.3869597             -10.5297
        42        1.0000           -0.2999962              -8.1633 (HOMO)
        43                         -0.2175547              -5.9200 (LUMO)
        44                         -0.2173066              -5.9132
        45                         -0.2037498              -5.5443
        46                         -0.1222455              -3.3265
        47                         -0.0877254              -2.3871
        48                          0.0653251               1.7776
        49                          0.0879873               2.3943
        50                          0.0947168               2.5774
        51                          0.1089374               2.9643
        52                          0.1130991               3.0776
        53                          0.1235447               3.3618
       ...                                ...                  ...
        83                          0.6699644              18.2307
      -------------------------------------------------------------
                  HL-Gap            0.0824416 Eh            2.2433 eV

     #   Z          covCN         q      C6AA      α(0)
     1   6 C        3.751    -0.100    22.479     6.761
     2   6 C        3.803    -0.048    21.426     6.590
     3   6 C        3.860    -0.013    20.770     6.481
     4   6 C        2.909    -0.042    29.050     8.838
     5   6 C        2.903    -0.032    28.794     8.798
     6   6 C        2.916    -0.045    29.105     8.847
     7   6 C        2.907    -0.036    28.899     8.815
     8   6 C        2.966     0.001    28.001     8.680
     9   6 C        3.861    -0.021    20.904     6.502
    10   6 C        3.753    -0.098    22.434     6.754
    11   6 C        2.976     0.013    27.726     8.637
    12   6 C        2.924    -0.037    28.919     8.819
    13   6 C        2.920    -0.031    28.779     8.797
    14   6 C        2.920    -0.034    28.841     8.807
    15   6 C        2.919    -0.031    28.761     8.794
    16   6 C        2.927    -0.038    28.937     8.822
    17   1 H        0.925     0.039     2.468     2.457
    18   1 H        0.925     0.032     2.558     2.501
    19   1 H        0.925     0.037     2.492     2.469
    20   1 H        0.924     0.032     2.557     2.501
    21   1 H        0.924     0.032     2.562     2.503
    22   1 H        0.923     0.041     2.438     2.442
    23   1 H        0.926     0.023     2.692     2.566
    24   1 H        0.925     0.024     2.675     2.558
    25   1 H        0.926     0.023     2.695     2.567
    26   1 H        0.925     0.026     2.638     2.540
    27   1 H        0.924     0.035     2.518     2.482
    28   1 H        0.925     0.036     2.496     2.471
    29   1 H        0.925     0.036     2.498     2.472
    30   1 H        0.925     0.038     2.479     2.462
    31   1 H        0.926     0.033     2.543     2.494
    32   1 H        0.926     0.027     2.623     2.533
    33   1 H        0.926     0.027     2.626     2.534
    34   1 H        0.926     0.027     2.622     2.532
    35   1 H        0.925     0.023     2.688     2.564

Wiberg/Mayer (AO) data.
largest (>0.10) Wiberg bond orders for each atom

     #   Z sym  total        # sym  WBO       # sym  WBO       # sym  WBO
 ---------------------------------------------------------------------------
     1   6 C    3.997 --     2 C    1.022    18 H    0.986    19 H    0.986
                            17 H    0.985
     2   6 C    3.992 --     1 C    1.022    21 H    0.978    20 H    0.975
                             3 C    0.934
     3   6 C    3.995 --     4 C    1.036     8 C    1.024     2 C    0.934
                            22 H    0.926
     4   6 C    3.922 --     5 C    1.637     3 C    1.036    23 H    0.971
     5   6 C    3.993 --     4 C    1.637     6 C    1.303    24 H    0.968
     6   6 C    3.878 --     7 C    1.339     5 C    1.303    25 H    0.974
     7   6 C    3.993 --     8 C    1.570     6 C    1.339    26 H    0.964
     8   6 C    3.912 --     7 C    1.570     3 C    1.024     9 C    0.989
     9   6 C    3.995 --    10 C    0.992     8 C    0.989    11 C    0.981
                            27 H    0.960
    10   6 C    3.996 --     9 C    0.992    28 H    0.985    29 H    0.985
                            30 H    0.984
    11   6 C    3.986 --    12 C    1.414    16 C    1.404     9 C    0.981
                            14 C    0.109
    12   6 C    3.990 --    13 C    1.439    11 C    1.414    31 H    0.967
                            15 C    0.109
    13   6 C    3.992 --    14 C    1.443    12 C    1.439    32 H    0.971
                            16 C    0.111
    14   6 C    3.990 --    13 C    1.443    15 C    1.431    33 H    0.972
                            11 C    0.109
    15   6 C    3.992 --    16 C    1.453    14 C    1.431    34 H    0.971
                            12 C    0.109
    16   6 C    3.992 --    15 C    1.453    11 C    1.404    35 H    0.969
                            13 C    0.111
    17   1 H    0.999 --     1 C    0.985
    18   1 H    0.999 --     1 C    0.986
    19   1 H    0.999 --     1 C    0.986
    20   1 H    0.999 --     2 C    0.975
    21   1 H    0.999 --     2 C    0.978
    22   1 H    0.997 --     3 C    0.926
    23   1 H    0.999 --     4 C    0.971
    24   1 H    0.998 --     5 C    0.968
    25   1 H    0.999 --     6 C    0.974
    26   1 H    0.999 --     7 C    0.964
    27   1 H    0.998 --     9 C    0.960
    28   1 H    0.998 --    10 C    0.985
    29   1 H    0.998 --    10 C    0.985
    30   1 H    0.999 --    10 C    0.984
    31   1 H    0.999 --    12 C    0.967
    32   1 H    0.999 --    13 C    0.971
    33   1 H    0.999 --    14 C    0.972
    34   1 H    0.999 --    15 C    0.971
    35   1 H    0.999 --    16 C    0.969
 ---------------------------------------------------------------------------

molecular dipole:
                 x           y           z       tot (Debye)
 q only:        0.072      -0.010      -0.396
   full:        0.068      -0.071      -0.386       1.012

           -------------------------------------------------
          | TOTAL ENERGY              -43.880235137584 Eh   |
          | GRADIENT NORM               0.000590005018 Eh/α |
          | HOMO-LUMO GAP               2.243348996620 eV   |
           -------------------------------------------------

 * finished run on 2025/09/15 at 14:21:06.548
