   * xtb version 6.7.1 (edcfbbe) compiled by 'conda@c0858423619e' on 2025-09-04

   ID    Z sym.   atoms
    1    6 C      1-16
    2    1 H      17-35

          program call               : /home/paufv/miniforge3/envs/htvs/bin/xtb gfn_opt.xyz --opt normal --parallel 4 --chrg 0 --uhf 0 --gfn2 --input xtb.inp
          :  Hamiltonian                  GFN2-xTB          :
 * total energy  :   -43.8667310 Eh     change       -0.5026507E-08 Eh
 * total energy  :   -43.8752253 Eh     change       -0.8494287E-02 Eh
 * total energy  :   -43.8776457 Eh     change       -0.2420385E-02 Eh
 * total energy  :   -43.8782443 Eh     change       -0.5985799E-03 Eh
 * total energy  :   -43.8786470 Eh     change       -0.4027562E-03 Eh
 * total energy  :   -43.8788958 Eh     change       -0.2488040E-03 Eh
 * total energy  :   -43.8791777 Eh     change       -0.2818269E-03 Eh
 * total energy  :   -43.8794467 Eh     change       -0.2690865E-03 Eh
 * total energy  :   -43.8796139 Eh     change       -0.1671555E-03 Eh
 * total energy  :   -43.8797213 Eh     change       -0.1074228E-03 Eh
 * total energy  :   -43.8799670 Eh     change       -0.7113538E-04 Eh
 * total energy  :   -43.8800208 Eh     change       -0.5378813E-04 Eh
 * total energy  :   -43.8800632 Eh     change       -0.4235650E-04 Eh
 * total energy  :   -43.8800526 Eh     change        0.1051798E-04 Eh
 * total energy  :   -43.8800782 Eh     change       -0.2558777E-04 Eh
 * total energy  :   -43.8800925 Eh     change       -0.1429070E-04 Eh
 * total energy  :   -43.8801013 Eh     change       -0.8771246E-05 Eh
 * total energy  :   -43.8801071 Eh     change       -0.5833350E-05 Eh
 * total energy  :   -43.8801108 Eh     change       -0.3713457E-05 Eh
   *** GEOMETRY OPTIMIZATION CONVERGED AFTER 21 ITERATIONS ***

 final structure:
================
35
 xtb: 6.7.1 (edcfbbe)
C           -2.38355322124025       -1.62403206183844        1.84278977178557
C           -2.76546127735134       -0.60018672435943        0.77141904748302
C           -1.68112025190384        0.38716541624607        0.44395066808428
C           -1.16943176302594        1.23188614754746        1.38373614617064
C           -0.28267606547476        2.26110730251005        1.04971815818155
C           -0.02031121072272        2.53198541623621       -0.30156407063253
C           -0.49289160217986        1.71945699873505       -1.27788428101355
C           -1.16997084524716        0.43342866161899       -0.96074005201744
C           -0.17668677769907       -0.78258845480603       -1.18938239949894
C           -0.00100215572730       -1.06509414047437       -2.67910433095245
C            1.11996392049219       -0.52074606584838       -0.47510912621235
C            2.12690493734353        0.25345182935866       -1.04103778380669
C            3.29197292162981        0.51946991482586       -0.34529626844454
C            3.47366086270478        0.01951455148285        0.93215271630432
C            2.48089172882178       -0.75454735040283        1.50587856588928
C            1.31761149255833       -1.01934719844688        0.80688923958476
H           -2.04322834067453       -1.12815143567855        2.74771435652832
H           -3.24364113225028       -2.24254527792195        2.09166587846268
H           -1.58878391197544       -2.27633957631396        1.48917743886097
H           -3.06701201784065       -1.13084300346970       -0.13455354777398
H           -3.63881472966065       -0.04452050722003        1.13067005884703
H           -1.49678329986018        1.14684727623787        2.41133448502742
H            0.12321817298810        2.89696647742532        1.81971277115124
H            0.53513140312758        3.42313055662641       -0.55931709722287
H           -0.33932432052404        1.95800721323501       -2.31932174520859
H           -1.99736068171517        0.25971830708919       -1.66249040461879
H           -0.64965468176782       -1.65899149035226       -0.73472562741188
H           -0.94403365904040       -1.39252585719411       -3.11335700978333
H            0.33218030678465       -0.18443138212263       -3.21999792198374
H            0.73519070086343       -1.85402388059353       -2.82205294037880
H            2.00819440763729        0.65773688021835       -2.03404712961570
H            4.06190158075624        1.12428438532167       -0.80277361065814
H            4.38284919121925        0.23090980919542        1.47591356095721
H            2.61154615860043       -1.15324657063982        2.50175606217856
H            0.55032416035419       -1.62310616622309        1.26827642173755

          :  Hamiltonian                  GFN2-xTB          :
         :: total energy             -43.880110837268 Eh    ::
         :: gradient norm              0.000580058286 Eh/a0 ::
         :: HOMO-LUMO gap              2.346163794204 eV    ::
         :: SCC energy               -44.666149328706 Eh    ::
         :: -> dispersion             -0.038823764849 Eh    ::
         :: repulsion energy           0.786038491437 Eh    ::

    * Orbital Energies and Occupations

         #    Occupation            Energy/Eh            Energy/eV
      -------------------------------------------------------------
         1        2.0000           -0.6394273             -17.3997
       ...           ...                  ...                  ...
        30        2.0000           -0.4500376             -12.2461
        31        2.0000           -0.4475613             -12.1788
        32        2.0000           -0.4421661             -12.0320
        33        2.0000           -0.4389931             -11.9456
        34        2.0000           -0.4311656             -11.7326
        35        2.0000           -0.4159106             -11.3175
        36        2.0000           -0.4118512             -11.2070
        37        2.0000           -0.4108406             -11.1795
        38        2.0000           -0.4045477             -11.0083
        39        2.0000           -0.3968451             -10.7987
        40        2.0000           -0.3886811             -10.5766
        41        2.0000           -0.3843067             -10.4575
        42        1.0000           -0.2994380              -8.1481 (HOMO)
        43                         -0.2132181              -5.8020 (LUMO)
        44                         -0.2126787              -5.7873
        45                         -0.2035113              -5.5378
        46                         -0.1235678              -3.3625
        47                         -0.0843776              -2.2960
        48                          0.0669432               1.8216
        49                          0.0804360               2.1888
        50                          0.0961139               2.6154
        51                          0.1073690               2.9217
        52                          0.1112246               3.0266
        53                          0.1227319               3.3397
       ...                                ...                  ...
        83                          0.6759541              18.3936
      -------------------------------------------------------------
                  HL-Gap            0.0862199 Eh            2.3462 eV

     #   Z          covCN         q      C6AA      α(0)
     1   6 C        3.751    -0.095    22.382     6.747
     2   6 C        3.804    -0.056    21.572     6.612
     3   6 C        2.958    -0.002    28.069     8.690
     4   6 C        2.908    -0.038    28.950     8.823
     5   6 C        2.916    -0.043    29.065     8.841
     6   6 C        2.904    -0.032    28.800     8.799
     7   6 C        2.909    -0.041    29.025     8.834
     8   6 C        3.861    -0.016    20.823     6.489
     9   6 C        3.855    -0.015    20.800     6.486
    10   6 C        3.753    -0.100    22.472     6.760
    11   6 C        2.970     0.012    27.748     8.640
    12   6 C        2.925    -0.035    28.866     8.811
    13   6 C        2.920    -0.032    28.788     8.799
    14   6 C        2.920    -0.033    28.834     8.806
    15   6 C        2.919    -0.031    28.781     8.797
    16   6 C        2.927    -0.037    28.915     8.818
    17   1 H        0.925     0.038     2.479     2.462
    18   1 H        0.925     0.033     2.539     2.492
    19   1 H        0.925     0.031     2.565     2.505
    20   1 H        0.924     0.032     2.563     2.504
    21   1 H        0.924     0.040     2.449     2.447
    22   1 H        0.925     0.025     2.656     2.549
    23   1 H        0.926     0.022     2.697     2.568
    24   1 H        0.925     0.024     2.678     2.559
    25   1 H        0.926     0.022     2.700     2.569
    26   1 H        0.923     0.042     2.418     2.432
    27   1 H        0.924     0.038     2.481     2.463
    28   1 H        0.925     0.033     2.542     2.493
    29   1 H        0.925     0.040     2.448     2.447
    30   1 H        0.925     0.037     2.490     2.468
    31   1 H        0.926     0.031     2.567     2.506
    32   1 H        0.926     0.026     2.640     2.541
    33   1 H        0.926     0.026     2.640     2.541
    34   1 H        0.926     0.026     2.639     2.540
    35   1 H        0.926     0.026     2.637     2.539

Wiberg/Mayer (AO) data.
largest (>0.10) Wiberg bond orders for each atom

     #   Z sym  total        # sym  WBO       # sym  WBO       # sym  WBO
 ---------------------------------------------------------------------------
     1   6 C    3.996 --     2 C    1.002    18 H    0.987    17 H    0.986
                            19 H    0.983
     2   6 C    3.997 --     3 C    1.021     1 C    1.002    20 H    0.976
                            21 H    0.958
     3   6 C    3.917 --     4 C    1.571     8 C    1.030     2 C    1.021
     4   6 C    3.992 --     3 C    1.571     5 C    1.336    22 H    0.964
     5   6 C    3.882 --     4 C    1.336     6 C    1.309    23 H    0.974
     6   6 C    3.993 --     7 C    1.628     5 C    1.309    24 H    0.968
     7   6 C    3.926 --     6 C    1.628     8 C    1.045    25 H    0.970
     8   6 C    3.994 --     7 C    1.045     3 C    1.030    26 H    0.940
                             9 C    0.875
     9   6 C    3.986 --    11 C    1.011    10 C    1.006    27 H    0.963
                             8 C    0.875
    10   6 C    3.996 --     9 C    1.006    28 H    0.986    30 H    0.984
                            29 H    0.983
    11   6 C    3.988 --    16 C    1.410    12 C    1.404     9 C    1.011
                            14 C    0.109
    12   6 C    3.992 --    13 C    1.448    11 C    1.404    31 H    0.966
                            15 C    0.110
    13   6 C    3.993 --    12 C    1.448    14 C    1.436    32 H    0.971
                            16 C    0.109
    14   6 C    3.992 --    15 C    1.438    13 C    1.436    33 H    0.972
                            11 C    0.109
    15   6 C    3.992 --    16 C    1.445    14 C    1.438    34 H    0.971
                            12 C    0.110
    16   6 C    3.992 --    15 C    1.445    11 C    1.410    35 H    0.965
                            13 C    0.109
    17   1 H    0.999 --     1 C    0.986
    18   1 H    0.998 --     1 C    0.987
    19   1 H    0.999 --     1 C    0.983
    20   1 H    0.999 --     2 C    0.976
    21   1 H    0.998 --     2 C    0.958
    22   1 H    0.999 --     4 C    0.964
    23   1 H    0.999 --     5 C    0.974
    24   1 H    0.999 --     6 C    0.968
    25   1 H    0.999 --     7 C    0.970
    26   1 H    0.997 --     8 C    0.940
    27   1 H    0.998 --     9 C    0.963
    28   1 H    0.998 --    10 C    0.986
    29   1 H    0.998 --    10 C    0.983
    30   1 H    0.997 --    10 C    0.984
    31   1 H    0.999 --    12 C    0.966
    32   1 H    0.999 --    13 C    0.971
    33   1 H    0.999 --    14 C    0.972
    34   1 H    0.999 --    15 C    0.971
    35   1 H    0.999 --    16 C    0.965
 ---------------------------------------------------------------------------

molecular dipole:
                 x           y           z       tot (Debye)
 q only:       -0.308      -0.316      -0.195
   full:       -0.333      -0.316      -0.190       1.262

           -------------------------------------------------
          | TOTAL ENERGY              -43.880110837268 Eh   |
          | GRADIENT NORM               0.000580058286 Eh/α |
          | HOMO-LUMO GAP               2.346163794204 eV   |
           -------------------------------------------------

 * finished run on 2025/09/15 at 14:52:51.275
